 Entering Gaussian System, Link 0=g16
 Input=M1610.gjf
 Output=M1610.log
 Initial command:
 /hpc/softwares/Gaussian/g16/l1.exe "/hpc/home/hpcmgac13/pbs.10982.admin1.x8z/Gau-1272325.inp" -scrdir="/hpc/home/hpcmgac13/pbs.10982.admin1.x8z/"
 Default linda workers: n1
 Default is to use   8 SMP processors on each worker.
 Entering Link 1 = /hpc/softwares/Gaussian/g16/l1.exe PID=   1272326.
  
 Copyright (c) 1988-2021, Gaussian, Inc.  All Rights Reserved.
  
 This is part of the Gaussian(R) 16 program.  It is based on
 the Gaussian(R) 09 system (copyright 2009, Gaussian, Inc.),
 the Gaussian(R) 03 system (copyright 2003, Gaussian, Inc.),
 the Gaussian(R) 98 system (copyright 1998, Gaussian, Inc.),
 the Gaussian(R) 94 system (copyright 1995, Gaussian, Inc.),
 the Gaussian 92(TM) system (copyright 1992, Gaussian, Inc.),
 the Gaussian 90(TM) system (copyright 1990, Gaussian, Inc.),
 the Gaussian 88(TM) system (copyright 1988, Gaussian, Inc.),
 the Gaussian 86(TM) system (copyright 1986, Carnegie Mellon
 University), and the Gaussian 82(TM) system (copyright 1983,
 Carnegie Mellon University). Gaussian is a federally registered
 trademark of Gaussian, Inc.
  
 This software contains proprietary and confidential information,
 including trade secrets, belonging to Gaussian, Inc.
  
 This software is provided under written license and may be
 used, copied, transmitted, or stored only in accord with that
 written license.
  
 The following legend is applicable only to US Government
 contracts under FAR:
  
                    RESTRICTED RIGHTS LEGEND
  
 Use, reproduction and disclosure by the US Government is
 subject to restrictions as set forth in subparagraphs (a)
 and (c) of the Commercial Computer Software - Restricted
 Rights clause in FAR 52.227-19.
  
 Gaussian, Inc.
 340 Quinnipiac St., Bldg. 40, Wallingford CT 06492
  
  
 ---------------------------------------------------------------
 Warning -- This program may not be used in any manner that
 competes with the business of Gaussian, Inc. or will provide
 assistance to any competitor of Gaussian, Inc.  The licensee
 of this program is prohibited from giving any competitor of
 Gaussian, Inc. access to this program.  By using this program,
 the user acknowledges that Gaussian, Inc. is engaged in the
 business of creating and licensing software in the field of
 computational chemistry and represents and warrants to the
 licensee that it is not a competitor of Gaussian, Inc. and that
 it will not use this program in any manner prohibited above.
 ---------------------------------------------------------------
  

 Cite this work as:
 Gaussian 16, Revision C.02,
 M. J. Frisch, G. W. Trucks, H. B. Schlegel, G. E. Scuseria, 
 M. A. Robb, J. R. Cheeseman, G. Scalmani, V. Barone, 
 G. A. Petersson, H. Nakatsuji, X. Li, M. Caricato, A. V. Marenich, 
 J. Bloino, B. G. Janesko, R. Gomperts, B. Mennucci, H. P. Hratchian, 
 J. V. Ortiz, A. F. Izmaylov, J. L. Sonnenberg, D. Williams-Young, 
 F. Ding, F. Lipparini, F. Egidi, J. Goings, B. Peng, A. Petrone, 
 T. Henderson, D. Ranasinghe, V. G. Zakrzewski, J. Gao, N. Rega, 
 G. Zheng, W. Liang, M. Hada, M. Ehara, K. Toyota, R. Fukuda, 
 J. Hasegawa, M. Ishida, T. Nakajima, Y. Honda, O. Kitao, H. Nakai, 
 T. Vreven, K. Throssell, J. A. Montgomery, Jr., J. E. Peralta, 
 F. Ogliaro, M. J. Bearpark, J. J. Heyd, E. N. Brothers, K. N. Kudin, 
 V. N. Staroverov, T. A. Keith, R. Kobayashi, J. Normand, 
 K. Raghavachari, A. P. Rendell, J. C. Burant, S. S. Iyengar, 
 J. Tomasi, M. Cossi, J. M. Millam, M. Klene, C. Adamo, R. Cammi, 
 J. W. Ochterski, R. L. Martin, K. Morokuma, O. Farkas, 
 J. B. Foresman, and D. J. Fox, Gaussian, Inc., Wallingford CT, 2019.
 
 ******************************************
 Gaussian 16:  ES64L-G16RevC.02  7-Dec-2021
                10-Jun-2025 
 ******************************************
 SetLPE:    new flags="-opt 'Tsnet.Node.lindarsharg: ssh'  -nodelist 'n1' -env GAUSS_MDEF=4294967296 -env GAUSS_EXEDIR="/hpc/softwares/Gaussian/g16/bsd:/hpc/softwares/Gaussian/g16""
 Will use up to    1 processors via Linda.
 -----------------
 # opt b3lyp/6-31g
 -----------------
 1/18=20,19=15,26=3,38=1/1,3;
 2/9=110,12=2,17=6,18=5,40=1/2;
 3/5=1,6=6,11=2,25=1,30=1,71=1,74=-5/1,2,3;
 4//1;
 5/5=2,38=5/2;
 6/7=2,8=2,9=2,10=2,28=1/1;
 7//1,2,3,16;
 1/18=20,19=15,26=3/3(2);
 2/9=110/2;
 99//99;
 2/9=110/2;
 3/5=1,6=6,11=2,25=1,30=1,71=1,74=-5/1,2,3;
 4/5=5,16=3,69=1/1;
 5/5=2,38=5/2;
 7//1,2,3,16;
 1/18=20,19=15,26=3/3(-5);
 2/9=110/2;
 6/7=2,8=2,9=2,10=2,19=2,28=1/1;
 99/9=1/99;
 ----------
 [No Title]
 ----------
 Symbolic Z-matrix:
 Charge =  0 Multiplicity = 1
 C                    -5.72835   2.78187   4.00861 
 C                    -4.48477   2.56352   3.12689 
 C                    -3.29547   3.24825   3.41087 
 C                    -2.16381   3.04955   2.60851 
 C                    -0.85689   3.802     2.92058 
 C                    -2.22145   2.16613   1.52215 
 C                    -0.97787   1.94778   0.64043 
 C                    -1.03698   1.09284  -0.40962 
 N                     0.13214   0.85991  -1.28094 
 C                     0.04628  -0.50058  -1.83103 
 C                     1.39683   0.98774  -0.52958 
 C                     1.5148    1.84014   0.51758 
 C                     0.32172   2.699     0.95408 
 C                    -3.41074   1.4814    1.23816 
 C                    -3.47407   0.51062   0.04436 
 C                    -4.19246  -0.7757   -0.40389 
 C                    -5.49701  -1.05188   0.05747 
 C                    -6.09064  -2.22885  -0.38355 
 C                    -5.48069  -3.08601  -1.20997 
 C                    -4.1961   -2.86437  -1.69543 
 C                    -3.54076  -1.6839   -1.28215 
 F                    -2.29262  -1.41716  -1.72202 
 N                    -6.32427  -4.09597  -1.42642 
 O                    -7.38533  -3.84683  -0.75781 
 N                    -7.2739   -2.74958  -0.13241 
 O                    -8.2242   -2.19856   0.66942 
 C                    -4.5424    1.68009   2.04053 
 H                    -5.42135   3.01856   5.00592 
 H                    -6.30876   3.58906   3.61305 
 H                    -6.31897   1.88971   4.01948 
 H                    -3.25146   3.92276   4.24033 
 H                    -0.79458   3.98744   3.97254 
 H                    -0.02144   3.20847   2.61293 
 H                    -0.84661   4.73289   2.39309 
 H                    -1.95205   0.57698  -0.6132 
 H                    -0.86116  -0.60324  -2.38863 
 H                     0.88241  -0.67853  -2.47456 
 H                     0.0551   -1.21027  -1.0303 
 H                     2.23972   0.39597  -0.81979 
 H                     2.44464   1.91438   1.04179 
 H                     0.38167   2.88718   2.00569 
 H                     0.3358    3.62892   0.42496 
 H                    -2.98856  -0.15455   0.72754 
 H                    -4.44423   0.94234  -0.08722 
 H                    -6.00773  -0.38357   0.71885 
 H                    -3.72328  -3.56087  -2.3559 
 H                    -5.45045   1.15729   1.82371 
 

 GradGradGradGradGradGradGradGradGradGradGradGradGradGradGradGradGradGrad
 Berny optimization.
 Initialization pass.
                           ----------------------------
                           !    Initial Parameters    !
                           ! (Angstroms and Degrees)  !
 --------------------------                            --------------------------
 ! Name  Definition              Value          Derivative Info.                !
 --------------------------------------------------------------------------------
 ! R1    R(1,2)                  1.54           estimate D2E/DX2                !
 ! R2    R(1,28)                 1.07           estimate D2E/DX2                !
 ! R3    R(1,29)                 1.07           estimate D2E/DX2                !
 ! R4    R(1,30)                 1.07           estimate D2E/DX2                !
 ! R5    R(2,3)                  1.4014         estimate D2E/DX2                !
 ! R6    R(2,27)                 1.4014         estimate D2E/DX2                !
 ! R7    R(3,4)                  1.4014         estimate D2E/DX2                !
 ! R8    R(3,31)                 1.07           estimate D2E/DX2                !
 ! R9    R(4,5)                  1.54           estimate D2E/DX2                !
 ! R10   R(4,6)                  1.4014         estimate D2E/DX2                !
 ! R11   R(5,32)                 1.07           estimate D2E/DX2                !
 ! R12   R(5,33)                 1.07           estimate D2E/DX2                !
 ! R13   R(5,34)                 1.07           estimate D2E/DX2                !
 ! R14   R(6,7)                  1.54           estimate D2E/DX2                !
 ! R15   R(6,14)                 1.4014         estimate D2E/DX2                !
 ! R16   R(7,8)                  1.3554         estimate D2E/DX2                !
 ! R17   R(7,13)                 1.5335         estimate D2E/DX2                !
 ! R18   R(8,9)                  1.4766         estimate D2E/DX2                !
 ! R19   R(8,35)                 1.07           estimate D2E/DX2                !
 ! R20   R(9,10)                 1.47           estimate D2E/DX2                !
 ! R21   R(9,11)                 1.4766         estimate D2E/DX2                !
 ! R22   R(10,36)                1.07           estimate D2E/DX2                !
 ! R23   R(10,37)                1.07           estimate D2E/DX2                !
 ! R24   R(10,38)                1.07           estimate D2E/DX2                !
 ! R25   R(11,12)                1.3554         estimate D2E/DX2                !
 ! R26   R(11,39)                1.07           estimate D2E/DX2                !
 ! R27   R(12,13)                1.5335         estimate D2E/DX2                !
 ! R28   R(12,40)                1.07           estimate D2E/DX2                !
 ! R29   R(13,41)                1.07           estimate D2E/DX2                !
 ! R30   R(13,42)                1.07           estimate D2E/DX2                !
 ! R31   R(14,15)                1.54           estimate D2E/DX2                !
 ! R32   R(14,27)                1.4014         estimate D2E/DX2                !
 ! R33   R(15,16)                1.54           estimate D2E/DX2                !
 ! R34   R(15,43)                1.07           estimate D2E/DX2                !
 ! R35   R(15,44)                1.07           estimate D2E/DX2                !
 ! R36   R(16,17)                1.411          estimate D2E/DX2                !
 ! R37   R(16,21)                1.4216         estimate D2E/DX2                !
 ! R38   R(17,18)                1.39           estimate D2E/DX2                !
 ! R39   R(17,45)                1.07           estimate D2E/DX2                !
 ! R40   R(18,19)                1.3378         estimate D2E/DX2                !
 ! R41   R(18,25)                1.3169         estimate D2E/DX2                !
 ! R42   R(19,20)                1.391          estimate D2E/DX2                !
 ! R43   R(19,23)                1.3336         estimate D2E/DX2                !
 ! R44   R(20,21)                1.412          estimate D2E/DX2                !
 ! R45   R(20,46)                1.07           estimate D2E/DX2                !
 ! R46   R(21,22)                1.35           estimate D2E/DX2                !
 ! R47   R(23,24)                1.2787         estimate D2E/DX2                !
 ! R48   R(24,25)                1.2679         estimate D2E/DX2                !
 ! R49   R(25,26)                1.36           estimate D2E/DX2                !
 ! R50   R(27,47)                1.07           estimate D2E/DX2                !
 ! R51   R(33,41)                0.7965         estimate D2E/DX2                !
 ! A1    A(2,1,28)             109.4712         estimate D2E/DX2                !
 ! A2    A(2,1,29)             109.4712         estimate D2E/DX2                !
 ! A3    A(2,1,30)             109.4712         estimate D2E/DX2                !
 ! A4    A(28,1,29)            109.4712         estimate D2E/DX2                !
 ! A5    A(28,1,30)            109.4712         estimate D2E/DX2                !
 ! A6    A(29,1,30)            109.4712         estimate D2E/DX2                !
 ! A7    A(1,2,3)              119.9999         estimate D2E/DX2                !
 ! A8    A(1,2,27)             120.0001         estimate D2E/DX2                !
 ! A9    A(3,2,27)             120.0            estimate D2E/DX2                !
 ! A10   A(2,3,4)              120.0            estimate D2E/DX2                !
 ! A11   A(2,3,31)             120.0            estimate D2E/DX2                !
 ! A12   A(4,3,31)             120.0            estimate D2E/DX2                !
 ! A13   A(3,4,5)              120.0001         estimate D2E/DX2                !
 ! A14   A(3,4,6)              120.0            estimate D2E/DX2                !
 ! A15   A(5,4,6)              119.9999         estimate D2E/DX2                !
 ! A16   A(4,5,32)             109.4712         estimate D2E/DX2                !
 ! A17   A(4,5,33)             109.4712         estimate D2E/DX2                !
 ! A18   A(4,5,34)             109.4712         estimate D2E/DX2                !
 ! A19   A(32,5,33)            109.4712         estimate D2E/DX2                !
 ! A20   A(32,5,34)            109.4712         estimate D2E/DX2                !
 ! A21   A(33,5,34)            109.4712         estimate D2E/DX2                !
 ! A22   A(4,6,7)              119.9999         estimate D2E/DX2                !
 ! A23   A(4,6,14)             120.0001         estimate D2E/DX2                !
 ! A24   A(7,6,14)             120.0            estimate D2E/DX2                !
 ! A25   A(6,7,8)              119.8536         estimate D2E/DX2                !
 ! A26   A(6,7,13)             119.8537         estimate D2E/DX2                !
 ! A27   A(8,7,13)             120.2927         estimate D2E/DX2                !
 ! A28   A(7,8,9)              121.4757         estimate D2E/DX2                !
 ! A29   A(7,8,35)             119.2619         estimate D2E/DX2                !
 ! A30   A(9,8,35)             119.2623         estimate D2E/DX2                !
 ! A31   A(8,9,10)             108.6973         estimate D2E/DX2                !
 ! A32   A(8,9,11)             111.3597         estimate D2E/DX2                !
 ! A33   A(10,9,11)            108.6972         estimate D2E/DX2                !
 ! A34   A(9,10,36)            109.4712         estimate D2E/DX2                !
 ! A35   A(9,10,37)            109.4712         estimate D2E/DX2                !
 ! A36   A(9,10,38)            109.4712         estimate D2E/DX2                !
 ! A37   A(36,10,37)           109.4712         estimate D2E/DX2                !
 ! A38   A(36,10,38)           109.4712         estimate D2E/DX2                !
 ! A39   A(37,10,38)           109.4712         estimate D2E/DX2                !
 ! A40   A(9,11,12)            121.4757         estimate D2E/DX2                !
 ! A41   A(9,11,39)            119.2622         estimate D2E/DX2                !
 ! A42   A(12,11,39)           119.2619         estimate D2E/DX2                !
 ! A43   A(11,12,13)           120.2927         estimate D2E/DX2                !
 ! A44   A(11,12,40)           119.8536         estimate D2E/DX2                !
 ! A45   A(13,12,40)           119.8537         estimate D2E/DX2                !
 ! A46   A(7,13,12)            109.0722         estimate D2E/DX2                !
 ! A47   A(7,13,41)            109.5514         estimate D2E/DX2                !
 ! A48   A(7,13,42)            109.6182         estimate D2E/DX2                !
 ! A49   A(12,13,41)           109.5513         estimate D2E/DX2                !
 ! A50   A(12,13,42)           109.6182         estimate D2E/DX2                !
 ! A51   A(41,13,42)           109.416          estimate D2E/DX2                !
 ! A52   A(6,14,15)            119.9997         estimate D2E/DX2                !
 ! A53   A(6,14,27)            120.0            estimate D2E/DX2                !
 ! A54   A(15,14,27)           120.0003         estimate D2E/DX2                !
 ! A55   A(14,15,16)           140.4758         estimate D2E/DX2                !
 ! A56   A(14,15,43)            83.0079         estimate D2E/DX2                !
 ! A57   A(14,15,44)            83.0079         estimate D2E/DX2                !
 ! A58   A(16,15,43)            83.0079         estimate D2E/DX2                !
 ! A59   A(16,15,44)            83.0079         estimate D2E/DX2                !
 ! A60   A(43,15,44)           137.7958         estimate D2E/DX2                !
 ! A61   A(15,16,17)           119.9741         estimate D2E/DX2                !
 ! A62   A(15,16,21)           119.9735         estimate D2E/DX2                !
 ! A63   A(17,16,21)           120.0524         estimate D2E/DX2                !
 ! A64   A(16,17,18)           117.1835         estimate D2E/DX2                !
 ! A65   A(16,17,45)           121.4083         estimate D2E/DX2                !
 ! A66   A(18,17,45)           121.4082         estimate D2E/DX2                !
 ! A67   A(17,18,19)           122.9426         estimate D2E/DX2                !
 ! A68   A(17,18,25)           131.1487         estimate D2E/DX2                !
 ! A69   A(19,18,25)           105.9087         estimate D2E/DX2                !
 ! A70   A(18,19,20)           122.3125         estimate D2E/DX2                !
 ! A71   A(18,19,23)           107.2828         estimate D2E/DX2                !
 ! A72   A(20,19,23)           130.4047         estimate D2E/DX2                !
 ! A73   A(19,20,21)           117.3656         estimate D2E/DX2                !
 ! A74   A(19,20,46)           121.3172         estimate D2E/DX2                !
 ! A75   A(21,20,46)           121.3172         estimate D2E/DX2                !
 ! A76   A(16,21,20)           120.1434         estimate D2E/DX2                !
 ! A77   A(16,21,22)           119.9283         estimate D2E/DX2                !
 ! A78   A(20,21,22)           119.9283         estimate D2E/DX2                !
 ! A79   A(19,23,24)           107.0067         estimate D2E/DX2                !
 ! A80   A(23,24,25)           110.7092         estimate D2E/DX2                !
 ! A81   A(18,25,24)           109.0924         estimate D2E/DX2                !
 ! A82   A(18,25,26)           125.4538         estimate D2E/DX2                !
 ! A83   A(24,25,26)           125.4538         estimate D2E/DX2                !
 ! A84   A(2,27,14)            119.9999         estimate D2E/DX2                !
 ! A85   A(2,27,47)            120.0            estimate D2E/DX2                !
 ! A86   A(14,27,47)           120.0            estimate D2E/DX2                !
 ! A87   A(5,33,41)            146.9385         estimate D2E/DX2                !
 ! A88   A(13,41,33)           142.357          estimate D2E/DX2                !
 ! D1    D(28,1,2,3)           -29.9999         estimate D2E/DX2                !
 ! D2    D(28,1,2,27)          150.0001         estimate D2E/DX2                !
 ! D3    D(29,1,2,3)            90.0001         estimate D2E/DX2                !
 ! D4    D(29,1,2,27)          -89.9999         estimate D2E/DX2                !
 ! D5    D(30,1,2,3)          -149.9999         estimate D2E/DX2                !
 ! D6    D(30,1,2,27)           30.0001         estimate D2E/DX2                !
 ! D7    D(1,2,3,4)           -179.9997         estimate D2E/DX2                !
 ! D8    D(1,2,3,31)             0.0003         estimate D2E/DX2                !
 ! D9    D(27,2,3,4)             0.0003         estimate D2E/DX2                !
 ! D10   D(27,2,3,31)         -179.9997         estimate D2E/DX2                !
 ! D11   D(1,2,27,14)          179.9996         estimate D2E/DX2                !
 ! D12   D(1,2,27,47)           -0.0002         estimate D2E/DX2                !
 ! D13   D(3,2,27,14)           -0.0004         estimate D2E/DX2                !
 ! D14   D(3,2,27,47)          179.9998         estimate D2E/DX2                !
 ! D15   D(2,3,4,5)           -179.9999         estimate D2E/DX2                !
 ! D16   D(2,3,4,6)             -0.0001         estimate D2E/DX2                !
 ! D17   D(31,3,4,5)             0.0001         estimate D2E/DX2                !
 ! D18   D(31,3,4,6)           179.9999         estimate D2E/DX2                !
 ! D19   D(3,4,5,32)            30.0002         estimate D2E/DX2                !
 ! D20   D(3,4,5,33)           150.0002         estimate D2E/DX2                !
 ! D21   D(3,4,5,34)           -89.9999         estimate D2E/DX2                !
 ! D22   D(6,4,5,32)          -149.9997         estimate D2E/DX2                !
 ! D23   D(6,4,5,33)           -29.9997         estimate D2E/DX2                !
 ! D24   D(6,4,5,34)            90.0003         estimate D2E/DX2                !
 ! D25   D(3,4,6,7)           -179.9998         estimate D2E/DX2                !
 ! D26   D(3,4,6,14)             0.0            estimate D2E/DX2                !
 ! D27   D(5,4,6,7)              0.0            estimate D2E/DX2                !
 ! D28   D(5,4,6,14)           179.9999         estimate D2E/DX2                !
 ! D29   D(4,5,33,41)           66.9425         estimate D2E/DX2                !
 ! D30   D(32,5,33,41)        -173.0575         estimate D2E/DX2                !
 ! D31   D(34,5,33,41)         -53.0575         estimate D2E/DX2                !
 ! D32   D(4,6,7,8)           -179.9898         estimate D2E/DX2                !
 ! D33   D(4,6,7,13)            -0.0117         estimate D2E/DX2                !
 ! D34   D(14,6,7,8)             0.0103         estimate D2E/DX2                !
 ! D35   D(14,6,7,13)          179.9885         estimate D2E/DX2                !
 ! D36   D(4,6,14,15)          179.9996         estimate D2E/DX2                !
 ! D37   D(4,6,14,27)           -0.0002         estimate D2E/DX2                !
 ! D38   D(7,6,14,15)           -0.0005         estimate D2E/DX2                !
 ! D39   D(7,6,14,27)          179.9997         estimate D2E/DX2                !
 ! D40   D(6,7,8,9)            179.7977         estimate D2E/DX2                !
 ! D41   D(6,7,8,35)            -0.0493         estimate D2E/DX2                !
 ! D42   D(13,7,8,9)            -0.1803         estimate D2E/DX2                !
 ! D43   D(13,7,8,35)          179.9726         estimate D2E/DX2                !
 ! D44   D(6,7,13,12)          149.7366         estimate D2E/DX2                !
 ! D45   D(6,7,13,41)           29.8335         estimate D2E/DX2                !
 ! D46   D(6,7,13,42)          -90.2383         estimate D2E/DX2                !
 ! D47   D(8,7,13,12)          -30.2854         estimate D2E/DX2                !
 ! D48   D(8,7,13,41)         -150.1884         estimate D2E/DX2                !
 ! D49   D(8,7,13,42)           89.7397         estimate D2E/DX2                !
 ! D50   D(7,8,9,10)           151.3388         estimate D2E/DX2                !
 ! D51   D(7,8,9,11)            31.6201         estimate D2E/DX2                !
 ! D52   D(35,8,9,10)          -28.8142         estimate D2E/DX2                !
 ! D53   D(35,8,9,11)         -148.5329         estimate D2E/DX2                !
 ! D54   D(8,9,10,36)           59.318          estimate D2E/DX2                !
 ! D55   D(8,9,10,37)          179.318          estimate D2E/DX2                !
 ! D56   D(8,9,10,38)          -60.682          estimate D2E/DX2                !
 ! D57   D(11,9,10,36)        -179.3181         estimate D2E/DX2                !
 ! D58   D(11,9,10,37)         -59.3181         estimate D2E/DX2                !
 ! D59   D(11,9,10,38)          60.6819         estimate D2E/DX2                !
 ! D60   D(8,9,11,12)          -31.6199         estimate D2E/DX2                !
 ! D61   D(8,9,11,39)          148.5331         estimate D2E/DX2                !
 ! D62   D(10,9,11,12)        -151.3387         estimate D2E/DX2                !
 ! D63   D(10,9,11,39)          28.8143         estimate D2E/DX2                !
 ! D64   D(9,11,12,13)           0.1799         estimate D2E/DX2                !
 ! D65   D(9,11,12,40)        -179.7971         estimate D2E/DX2                !
 ! D66   D(39,11,12,13)       -179.973          estimate D2E/DX2                !
 ! D67   D(39,11,12,40)          0.0499         estimate D2E/DX2                !
 ! D68   D(11,12,13,7)          30.2856         estimate D2E/DX2                !
 ! D69   D(11,12,13,41)        150.1886         estimate D2E/DX2                !
 ! D70   D(11,12,13,42)        -89.7395         estimate D2E/DX2                !
 ! D71   D(40,12,13,7)        -149.7374         estimate D2E/DX2                !
 ! D72   D(40,12,13,41)        -29.8343         estimate D2E/DX2                !
 ! D73   D(40,12,13,42)         90.2375         estimate D2E/DX2                !
 ! D74   D(7,13,41,33)         -53.7446         estimate D2E/DX2                !
 ! D75   D(12,13,41,33)       -173.3539         estimate D2E/DX2                !
 ! D76   D(42,13,41,33)         66.4507         estimate D2E/DX2                !
 ! D77   D(6,14,15,16)         149.9998         estimate D2E/DX2                !
 ! D78   D(6,14,15,43)          79.96           estimate D2E/DX2                !
 ! D79   D(6,14,15,44)        -139.9602         estimate D2E/DX2                !
 ! D80   D(27,14,15,16)        -30.0003         estimate D2E/DX2                !
 ! D81   D(27,14,15,43)       -100.0402         estimate D2E/DX2                !
 ! D82   D(27,14,15,44)         40.0396         estimate D2E/DX2                !
 ! D83   D(6,14,27,2)            0.0004         estimate D2E/DX2                !
 ! D84   D(6,14,27,47)        -179.9999         estimate D2E/DX2                !
 ! D85   D(15,14,27,2)        -179.9995         estimate D2E/DX2                !
 ! D86   D(15,14,27,47)          0.0003         estimate D2E/DX2                !
 ! D87   D(14,15,16,17)         30.0001         estimate D2E/DX2                !
 ! D88   D(14,15,16,21)       -150.0001         estimate D2E/DX2                !
 ! D89   D(43,15,16,17)        100.04           estimate D2E/DX2                !
 ! D90   D(43,15,16,21)        -79.9602         estimate D2E/DX2                !
 ! D91   D(44,15,16,17)        -40.0398         estimate D2E/DX2                !
 ! D92   D(44,15,16,21)        139.9599         estimate D2E/DX2                !
 ! D93   D(15,16,17,18)        179.9998         estimate D2E/DX2                !
 ! D94   D(15,16,17,45)          0.0            estimate D2E/DX2                !
 ! D95   D(21,16,17,18)          0.0            estimate D2E/DX2                !
 ! D96   D(21,16,17,45)       -179.9998         estimate D2E/DX2                !
 ! D97   D(15,16,21,20)       -179.9997         estimate D2E/DX2                !
 ! D98   D(15,16,21,22)          0.0            estimate D2E/DX2                !
 ! D99   D(17,16,21,20)          0.0            estimate D2E/DX2                !
 ! D100  D(17,16,21,22)        179.9998         estimate D2E/DX2                !
 ! D101  D(16,17,18,19)          0.0            estimate D2E/DX2                !
 ! D102  D(16,17,18,25)        180.0            estimate D2E/DX2                !
 ! D103  D(45,17,18,19)        179.9998         estimate D2E/DX2                !
 ! D104  D(45,17,18,25)         -0.0003         estimate D2E/DX2                !
 ! D105  D(17,18,19,20)         -0.0001         estimate D2E/DX2                !
 ! D106  D(17,18,19,23)        180.0            estimate D2E/DX2                !
 ! D107  D(25,18,19,20)        180.0            estimate D2E/DX2                !
 ! D108  D(25,18,19,23)          0.0            estimate D2E/DX2                !
 ! D109  D(17,18,25,24)       -179.9999         estimate D2E/DX2                !
 ! D110  D(17,18,25,26)          0.0003         estimate D2E/DX2                !
 ! D111  D(19,18,25,24)          0.0            estimate D2E/DX2                !
 ! D112  D(19,18,25,26)       -179.9998         estimate D2E/DX2                !
 ! D113  D(18,19,20,21)          0.0001         estimate D2E/DX2                !
 ! D114  D(18,19,20,46)       -180.0            estimate D2E/DX2                !
 ! D115  D(23,19,20,21)       -180.0            estimate D2E/DX2                !
 ! D116  D(23,19,20,46)          0.0            estimate D2E/DX2                !
 ! D117  D(18,19,23,24)         -0.0001         estimate D2E/DX2                !
 ! D118  D(20,19,23,24)        180.0            estimate D2E/DX2                !
 ! D119  D(19,20,21,16)          0.0            estimate D2E/DX2                !
 ! D120  D(19,20,21,22)       -179.9998         estimate D2E/DX2                !
 ! D121  D(46,20,21,16)       -180.0            estimate D2E/DX2                !
 ! D122  D(46,20,21,22)          0.0003         estimate D2E/DX2                !
 ! D123  D(19,23,24,25)          0.0001         estimate D2E/DX2                !
 ! D124  D(23,24,25,18)         -0.0001         estimate D2E/DX2                !
 ! D125  D(23,24,25,26)        179.9997         estimate D2E/DX2                !
 ! D126  D(5,33,41,13)         -10.8388         estimate D2E/DX2                !
 --------------------------------------------------------------------------------
 Trust Radius=3.00D-01 FncErr=1.00D-07 GrdErr=1.00D-06 EigMax=2.50D+02 EigMin=1.00D-04
 Number of steps in this run=    275 maximum allowed number of steps=    282.
 GradGradGradGradGradGradGradGradGradGradGradGradGradGradGradGradGradGrad

                          Input orientation:                          
 ---------------------------------------------------------------------
 Center     Atomic      Atomic             Coordinates (Angstroms)
 Number     Number       Type             X           Y           Z
 ---------------------------------------------------------------------
      1          6           0       -5.728345    2.781871    4.008609
      2          6           0       -4.484765    2.563519    3.126887
      3          6           0       -3.295470    3.248247    3.410874
      4          6           0       -2.163813    3.049553    2.608505
      5          6           0       -0.856894    3.801998    2.920578
      6          6           0       -2.221451    2.166131    1.522152
      7          6           0       -0.977870    1.947784    0.640432
      8          6           0       -1.036984    1.092842   -0.409625
      9          7           0        0.132144    0.859906   -1.280942
     10          6           0        0.046282   -0.500585   -1.831027
     11          6           0        1.396825    0.987738   -0.529576
     12          6           0        1.514803    1.840135    0.517582
     13          6           0        0.321719    2.699003    0.954076
     14          6           0       -3.410744    1.481403    1.238165
     15          6           0       -3.474075    0.510617    0.044361
     16          6           0       -4.192460   -0.775695   -0.403885
     17          6           0       -5.497011   -1.051884    0.057468
     18          6           0       -6.090642   -2.228846   -0.383550
     19          6           0       -5.480694   -3.086011   -1.209973
     20          6           0       -4.196101   -2.864367   -1.695427
     21          6           0       -3.540763   -1.683895   -1.282147
     22          9           0       -2.292618   -1.417158   -1.722016
     23          7           0       -6.324271   -4.095967   -1.426421
     24          8           0       -7.385331   -3.846828   -0.757814
     25          7           0       -7.273905   -2.749576   -0.132410
     26          8           0       -8.224197   -2.198562    0.669418
     27          6           0       -4.542402    1.680093    2.040535
     28          1           0       -5.421354    3.018557    5.005924
     29          1           0       -6.308761    3.589056    3.613047
     30          1           0       -6.318966    1.889711    4.019482
     31          1           0       -3.251462    3.922759    4.240330
     32          1           0       -0.794575    3.987437    3.972542
     33          1           0       -0.021441    3.208474    2.612930
     34          1           0       -0.846611    4.732886    2.393092
     35          1           0       -1.952051    0.576984   -0.613198
     36          1           0       -0.861158   -0.603238   -2.388625
     37          1           0        0.882405   -0.678531   -2.474558
     38          1           0        0.055099   -1.210273   -1.030300
     39          1           0        2.239724    0.395965   -0.819793
     40          1           0        2.444640    1.914383    1.041787
     41          1           0        0.381674    2.887180    2.005691
     42          1           0        0.335801    3.628917    0.424961
     43          1           0       -2.988557   -0.154549    0.727535
     44          1           0       -4.444228    0.942344   -0.087221
     45          1           0       -6.007726   -0.383568    0.718849
     46          1           0       -3.723279   -3.560871   -2.355898
     47          1           0       -5.450454    1.157287    1.823706
 ---------------------------------------------------------------------
                    Distance matrix (angstroms):
                    1          2          3          4          5
     1  C    0.000000
     2  C    1.540000   0.000000
     3  C    2.548269   1.401401   0.000000
     4  C    3.838989   2.427297   1.401400   0.000000
     5  C    5.094655   3.838990   2.548271   1.540000   0.000000
     6  C    4.342800   2.802800   2.427295   1.401399   2.548268
     7  C    5.882800   4.342800   3.838987   2.548268   2.941397
     8  C    6.662017   5.153349   4.933836   3.769293   4.296767
     9  N    8.125185   6.606596   6.282185   5.019340   5.223684
    10  C    8.844330   7.382414   7.259378   6.098971   6.473461
    11  C    8.636092   7.102529   6.531054   5.174628   4.990277
    12  C    8.095513   6.582293   5.787283   4.400781   3.904900
    13  C    6.777928   5.276529   4.406992   3.006308   2.544181
    14  C    3.838991   2.427297   2.802801   2.427296   3.838988
    15  C    5.094663   3.838994   4.342801   3.838987   5.094649
    16  C    5.872421   4.868486   5.616858   5.274697   6.567598
    17  C    5.510237   4.849445   5.880752   5.868542   7.299881
    18  C    6.673051   6.153762   7.225593   7.227302   8.641786
    19  C    7.856651   7.191483   8.139426   7.951580   9.267451
    20  C    8.170912   7.266361   8.015578   7.591343   8.769164
    21  C    7.260900   6.194453   6.812535   6.280024   7.413574
    22  F    7.891522   6.645537   7.008443   6.222661   7.131239
    23  N    8.786316   8.274368   9.301105   9.200463  10.543552
    24  O    8.330908   8.037209   9.189396   9.282049  10.707735
    25  N    7.080515   6.828711   8.022261   8.200948   9.665500
    26  O    6.494936   6.534518   7.840642   8.248093   9.764815
    27  C    2.548272   1.401401   2.427298   2.802801   4.342801
    28  H    1.070000   2.148263   2.667644   4.044768   5.079049
    29  H    1.070000   2.148263   3.039235   4.298925   5.499792
    30  H    1.070000   2.148263   3.370097   4.538875   5.890557
    31  H    2.736836   2.146700   1.070000   2.146700   2.736838
    32  H    5.079053   4.044771   2.667648   2.148263   1.070000
    33  H    5.890558   4.538875   3.370098   2.148263   1.070000
    34  H    5.499790   4.298927   3.039234   2.148263   1.070000
    35  H    6.362626   4.934490   5.013339   4.066671   4.907918
    36  H    8.721988   7.319820   7.375229   6.325433   6.898824
    37  H    9.884729   8.407949   8.216601   7.001114   7.225496
    38  H    8.647315   7.220394   7.129428   6.025828   6.447018
    39  H    9.617491   8.092795   7.528109   6.179474   5.931313
    40  H    8.737977   7.265375   6.351427   4.998105   4.241824
    41  H    6.430793   5.004405   3.953011   2.620926   1.791078
    42  H    7.094638   5.627907   4.716642   3.369213   2.771387
    43  H    5.185986   3.922171   4.344366   3.805853   5.000769
    44  H    4.669973   3.600048   4.344365   4.111881   5.485750
    45  H    4.573902   4.099193   5.271946   5.489334   6.992685
    46  H    9.206390   8.255238   8.933239   8.412784   9.501011
    47  H    2.736841   2.146701   3.396347   3.872802   5.412802
                    6          7          8          9         10
     6  C    0.000000
     7  C    1.540000   0.000000
     8  C    2.507324   1.355374   0.000000
     9  N    3.886254   2.471292   1.476588   0.000000
    10  C    4.847452   3.626500   2.394339   1.470000   0.000000
    11  C    4.323207   2.815986   2.439029   1.476588   2.394337
    12  C    3.882657   2.498019   2.815986   2.471292   3.626498
    13  C    2.659769   1.533503   2.507091   2.900607   4.250885
    14  C    1.401400   2.548269   2.915635   4.391379   5.029835
    15  C    2.548266   2.941393   2.546469   3.857881   4.114914
    16  C    4.030985   4.340683   3.667219   4.706019   4.480999
    17  C    4.819774   5.455318   4.970902   6.093740   5.882044
    18  C    6.157773   6.680810   6.047624   7.004910   6.537883
    19  C    6.758119   7.002751   6.152230   6.861432   6.133319
    20  C    6.289513   6.242599   5.224252   5.725007   4.858360
    21  C    4.942406   4.842915   3.839333   4.467793   3.816855
    22  F    4.834217   4.316545   3.098240   3.355449   2.514447
    23  N    8.046186   8.329635   7.477501   8.140463   7.326283
    24  O    8.247398   8.751467   8.051279   8.884787   8.220584
    25  N    7.240790   7.893195   7.330771   8.318476   7.844003
    26  O    7.470654   8.348790   7.978328   9.109696   8.805463
    27  C    2.427296   3.838989   4.316955   5.792779   6.387516
    28  H    4.806524   6.320493   7.229055   8.661743   9.435216
    29  H    4.806523   6.320492   7.085520   8.537250   9.313950
    30  H    4.806527   6.320496   6.939115   8.412598   8.969858
    31  H    3.396344   4.693508   5.876599   7.163400   8.203807
    32  H    3.370095   3.911105   5.257454   6.183798   7.384497
    33  H    2.667643   2.528803   3.826625   4.549901   5.788822
    34  H    3.039235   3.293302   4.597976   5.427381   6.784516
    35  H    2.675384   2.097548   1.070000   2.206762   2.576354
    36  H    4.981363   3.961884   2.612288   2.086720   1.070000
    37  H    5.805146   4.478986   3.329530   2.086720   1.070000
    38  H    4.806017   3.719099   2.623400   2.086720   1.070000
    39  H    5.340437   3.859184   3.375009   2.206761   2.576351
    40  H    4.697502   3.446124   3.860470   3.443055   4.453903
    41  H    2.744081   2.143538   3.326558   3.869633   5.129312
    42  H    3.143740   2.144380   3.002123   3.258681   4.714455
    43  H    2.570102   2.910370   2.580262   3.847320   3.984498
    44  H    3.004743   3.681852   3.425771   4.730216   5.028676
    45  H    4.634883   5.544439   5.306743   6.575971   6.570127
    46  H    7.077663   6.845476   5.714998   5.963479   4.883690
    47  H    3.396346   4.693510   4.946780   6.394738   6.805859
                   11         12         13         14         15
    11  C    0.000000
    12  C    1.355374   0.000000
    13  C    2.507090   1.533503   0.000000
    14  C    5.146002   4.990886   3.936310   0.000000
    15  C    4.927749   5.184637   4.474892   1.540001   0.000000
    16  C    5.862218   6.345433   5.856227   2.898603   1.540000
    17  C    7.213159   7.598751   6.980736   3.487706   2.556140
    18  C    8.150455   8.672453   8.197031   4.855693   3.812373
    19  C    8.022384   8.728593   8.474520   5.580263   4.305300
    20  C    6.890482   7.722964   7.640788   5.301741   3.865062
    21  C    5.664253   6.420012   6.255338   4.048207   2.565142
    22  F    4.562612   5.488371   5.562284   4.291215   2.869189
    23  N    9.287827  10.023350   9.798345   6.833426   5.613149
    24  O   10.027532  10.638636  10.255588   6.940555   5.910054
    25  N    9.450228   9.936263   9.410683   5.890981   5.009871
    26  O   10.205595  10.544300   9.853926   6.085634   5.503999
    27  C    6.508397   6.247778   5.087066   1.401401   2.548275
    28  H    9.014075   8.345308   7.035799   4.538877   5.890565
    29  H    9.127115   8.593531   7.198999   4.298926   5.499795
    30  H    9.002273   8.581008   7.358693   4.044774   5.079064
    31  H    7.278249   6.396363   5.006462   3.872801   5.412802
    32  H    5.836908   4.677701   3.466600   4.538873   5.890552
    33  H    4.101035   2.936474   1.768931   4.044766   5.079041
    34  H    5.253677   4.178735   2.751807   4.298928   5.499787
    35  H    3.375009   3.859183   3.482720   2.524539   1.659320
    36  H    3.329528   4.478985   4.845373   4.898951   3.739977
    37  H    2.612286   3.961882   4.845373   6.072953   5.170875
    38  H    2.623396   3.719095   4.392183   4.939952   4.070802
    39  H    1.070000   2.097548   3.482720   6.110741   5.779914
    40  H    2.103750   1.070000   2.264976   5.874654   6.164138
    41  H    3.326558   2.143538   1.070000   4.116764   4.935754
    42  H    3.002122   2.144380   1.070000   4.394282   4.937996
    43  H    4.702842   4.929817   4.376300   1.765027   1.070000
    44  H    5.857955   6.056556   5.185017   1.765027   1.070000
    45  H    7.633245   7.846898   7.044107   3.239154   2.770178
    46  H    7.088072   8.053897   8.154995   6.199959   4.732902
    47  H    7.242369   7.119484   6.037476   2.146701   2.736846
                   16         17         18         19         20
    16  C    0.000000
    17  C    1.411021   0.000000
    18  C    2.390639   1.390013   0.000000
    19  C    2.765300   2.396737   1.337813   0.000000
    20  C    2.455737   2.837271   2.390438   1.391032   0.000000
    21  C    1.421576   2.453755   2.757958   2.394675   1.412014
    22  F    2.399655   3.683493   4.107958   3.634706   2.391311
    23  N    4.076077   3.486077   2.151349   1.333598   2.473522
    24  O    4.444271   3.470180   2.105744   2.100222   3.466344
    25  N    3.669496   2.464865   1.316943   2.118947   3.453850
    26  O    4.408110   3.021075   2.379436   3.441873   4.718193
    27  C    3.482606   3.508209   4.853148   5.844822   5.893170
    28  H    6.721054   6.407919   7.551796   8.712442   9.001008
    29  H    6.298057   5.902491   7.061752   8.276698   8.619159
    30  H    5.585034   5.002614   6.033353   7.266892   7.730977
    31  H    6.673056   6.876474   8.202649   9.154132   9.065905
    32  H    7.306584   7.926883   9.255595   9.942426   9.520687
    33  H    6.509392   7.393437   8.682082   9.167256   8.536341
    34  H    7.025828   7.781062   9.147422   9.777114   9.254908
    35  H    2.625450   3.958503   5.005333   5.121035   4.248515
    36  H    3.881560   5.260779   5.831847   5.375267   4.088407
    37  H    5.481914   6.873682   7.443063   6.919839   5.583561
    38  H    4.315439   5.659882   6.263060   5.847707   4.609894
    39  H    6.551241   7.919781   8.744995   8.478281   7.267485
    40  H    7.305996   8.534485   9.594215   9.637701   8.627179
    41  H    6.336041   7.339669   8.589126   8.965872   8.230103
    42  H    6.371243   7.487766   8.733055   9.032988   8.197372
    43  H    1.765027   2.747098   3.893605   4.307918   3.830408
    44  H    1.765027   2.259697   3.585378   4.308419   4.139921
    45  H    2.170135   1.070000   2.151095   3.361743   3.907055
    46  H    3.433320   3.907106   3.356912   2.151080   1.070000
    47  H    3.206420   2.828816   4.092398   5.216292   5.489208
                   21         22         23         24         25
    21  C    0.000000
    22  F    1.350000   0.000000
    23  N    3.686031   4.849497   0.000000
    24  O    4.442286   5.724396   1.278654   0.000000
    25  N    4.048940   5.395869   2.095004   1.267875   0.000000
    26  O    5.099808   6.443072   3.406231   2.336122   1.360000
    27  C    4.833209   5.367614   6.968337   6.816147   5.639571
    28  H    8.074002   8.644636   9.633628   9.176676   7.943914
    29  H    7.709004   8.345925   9.189998   8.692283   7.425510
    30  H    6.971108   7.753171   8.092357   7.541059   6.298658
    31  H    7.875024   8.061244  10.288547  10.121106   8.934257
    32  H    8.204713   7.992607  11.183370  11.277856  10.208804
    33  H    7.175829   6.733979  10.459297  10.740860   9.779237
    34  H    7.870255   7.539767  11.069873  11.238085  10.182117
    35  H    2.843075   2.306961   6.450900   7.007964   6.294385
    36  H    3.093929   1.776489   6.555196   7.466274   7.128856
    37  H    4.690098   3.345544   8.044479   9.018912   8.735003
    38  H    3.635653   2.456227   7.012882   7.898460   7.542543
    39  H    6.160651   4.964227   9.689554  10.518879  10.043707
    40  H    7.360252   6.417116  10.913760  11.535096  10.843493
    41  H    6.862224   6.290863  10.271974  10.644726   9.744351
    42  H    6.794699   6.081197  10.366195  10.812104   9.945021
    43  H    2.585083   2.842325   5.594757   5.930498   5.083097
    44  H    3.023446   3.587371   5.541895   5.660030   4.651815
    45  H    3.432308   4.563787   4.299336   4.009052   2.815287
    46  H    2.170091   2.654073   2.813435   4.005780   4.267206
    47  H    4.622289   5.401096   6.238875   5.953919   4.734441
                   26         27         28         29         30
    26  O    0.000000
    27  C    5.520829   0.000000
    28  H    7.340269   3.370100   0.000000
    29  H    6.769813   3.039236   1.747303   0.000000
    30  H    5.618436   2.667650   1.747303   1.747303   0.000000
    31  H    8.657371   3.396347   2.472275   3.138777   3.686684
    32  H   10.216482   4.806526   4.838769   5.540234   5.909446
    33  H   10.014913   4.806524   5.909446   6.377733   6.586072
    34  H   10.268632   4.806528   5.540225   5.712418   6.377732
    35  H    6.977720   3.868987   7.040729   6.776034   6.500378
    36  H    8.130869   6.195370   9.412340   9.125337   8.778742
    37  H    9.753219   7.441620  10.457698  10.343312  10.031360
    38  H    8.509554   6.238691   9.182077   9.224584   8.702811
    39  H   10.883150   7.471793   9.975423  10.145072   9.944900
    40  H   11.440238   7.061950   8.877355   9.275663   9.255704
    41  H   10.085208   5.069990   6.534048   6.916512   7.067452
    42  H   10.358225   5.495894   7.382587   7.369917   7.760885
    43  H    5.620792   2.739400   5.855912   5.776202   5.109554
    44  H    4.972520   2.254165   5.586194   4.916660   4.612717
    45  H    2.865203   2.855298   5.504298   4.924301   4.019807
    46  H    5.591662   6.889651  10.018421   9.666151   8.780200
    47  H    4.504193   1.070000   3.686690   3.138779   2.472285
                   31         32         33         34         35
    31  H    0.000000
    32  H    2.472283   0.000000
    33  H    3.686688   1.747303   0.000000
    34  H    3.138774   1.747303   1.747303   0.000000
    35  H    6.036506   5.830947   4.589106   5.247027   0.000000
    36  H    8.375037   7.844946   6.344275   7.165141   2.394810
    37  H    9.129646   8.133181   6.465932   7.481106   3.615955
    38  H    8.066034   7.264060   5.727505   6.917647   2.719728
    39  H    8.258101   6.713577   4.980628   6.217473   4.200765
    40  H    6.834458   4.835224   3.197611   4.538977   4.884516
    41  H    4.389272   2.542171   0.796536   2.250643   4.200221
    42  H    5.245173   3.740538   2.256458   2.547624   3.953015
    43  H    5.388254   5.700848   4.865019   5.590083   1.845819
    44  H    5.388252   6.250939   5.655724   5.784722   2.573147
    45  H    6.208242   7.541164   7.233666   7.457768   4.375558
    46  H    9.986869  10.276352   9.176976   9.980708   4.826603
    47  H    4.280592   5.857001   5.856998   5.857003   4.302798
                   36         37         38         39         40
    36  H    0.000000
    37  H    1.747303   0.000000
    38  H    1.747303   1.747303   0.000000
    39  H    3.615952   2.394808   2.719724   0.000000
    40  H    5.388362   4.639877   4.446001   2.411029   0.000000
    41  H    5.747840   5.747839   5.110090   4.200221   2.476141
    42  H    5.221121   5.221120   5.061061   3.953013   2.786988
    43  H    3.799685   5.050971   3.669929   5.480165   5.822272
    44  H    4.530306   6.058023   5.076131   6.746140   7.048122
    45  H    6.015963   7.599919   6.364025   8.425884   8.765121
    46  H    4.115872   5.434546   4.643130   7.319397   8.919971
    47  H    6.473393   7.870858   6.637907   8.167407   7.969761
                   41         42         43         44         45
    41  H    0.000000
    42  H    1.746707   0.000000
    43  H    4.716381   5.045544   0.000000
    44  H    5.608208   5.507148   1.996493   0.000000
    45  H    7.292338   7.511773   3.027856   2.202798   0.000000
    46  H    8.800651   8.712195   4.653000   5.093683   4.976748
    47  H    6.085998   6.445633   2.997239   2.170330   1.976233
                   46         47
    46  H    0.000000
    47  H    6.535536   0.000000
 Stoichiometry    C21H20FN3O2
 Framework group  C1[X(C21H20FN3O2)]
 Deg. of freedom   135
 Full point group                 C1      NOp   1
 Largest Abelian subgroup         C1      NOp   1
 Largest concise Abelian subgroup C1      NOp   1
                         Standard orientation:                         
 ---------------------------------------------------------------------
 Center     Atomic      Atomic             Coordinates (Angstroms)
 Number     Number       Type             X           Y           Z
 ---------------------------------------------------------------------
      1          6           0        0.810935    5.012414    0.068384
      2          6           0        1.349702    3.571316    0.000809
      3          6           0        2.719592    3.326886    0.166880
      4          6           0        3.209873    2.015489    0.105383
      5          6           0        4.715245    1.746883    0.287880
      6          6           0        2.330265    0.948520   -0.122185
      7          6           0        2.869035   -0.492577   -0.189761
      8          6           0        2.015695   -1.522261   -0.410208
      9          7           0        2.493943   -2.917189   -0.486144
     10          6           0        1.412610   -3.810679   -0.046488
     11          6           0        3.667929   -3.131319    0.383463
     12          6           0        4.561229   -2.140551    0.623110
     13          6           0        4.368718   -0.756181   -0.007834
     14          6           0        0.960375    1.192947   -0.288255
     15          6           0       -0.006220    0.020447   -0.538338
     16          6           0       -1.469341   -0.387676   -0.284736
     17          6           0       -2.475801    0.599291   -0.222171
     18          6           0       -3.776215    0.166365    0.009418
     19          6           0       -4.095993   -1.122613    0.170730
     20          6           0       -3.145253   -2.136700    0.118844
     21          6           0       -1.804889   -1.758474   -0.113859
     22          9           0       -0.839952   -2.700682   -0.174204
     23          7           0       -5.413009   -1.181921    0.371815
     24          8           0       -5.851961    0.018338    0.331164
     25          7           0       -4.905636    0.834854    0.118376
     26          8           0       -5.036023    2.184908    0.018614
     27          6           0        0.470092    2.504345   -0.226755
     28          1           0        1.426769    5.593100    0.722946
     29          1           0        0.824245    5.444433   -0.910433
     30          1           0       -0.192547    5.000992    0.439590
     31          1           0        3.391193    4.141541    0.340635
     32          1           0        5.134976    2.491581    0.931427
     33          1           0        4.854715    0.779501    0.723334
     34          1           0        5.201986    1.782940   -0.664319
     35          1           0        0.972440   -1.319536   -0.534396
     36          1           0        0.558661   -3.674040   -0.676567
     37          1           0        1.742311   -4.826757   -0.107989
     38          1           0        1.149768   -3.581602    0.965114
     39          1           0        3.818102   -4.090834    0.832550
     40          1           0        5.404701   -2.325256    1.255043
     41          1           0        4.788450   -0.009113    0.632959
     42          1           0        4.857161   -0.723945   -0.959298
     43          1           0        0.074275   -0.100929    0.521704
     44          1           0       -0.454064    0.707338   -1.225735
     45          1           0       -2.247631    1.637117   -0.347697
     46          1           0       -3.418818   -3.162779    0.250080
     47          1           0       -0.575849    2.690971   -0.353551
 ---------------------------------------------------------------------
 Rotational constants (GHZ):           0.2684301           0.1241982           0.0859675
 Standard basis: 6-31G (6D, 7F)
 There are   283 symmetry adapted cartesian basis functions of A   symmetry.
 There are   283 symmetry adapted basis functions of A   symmetry.
   283 basis functions,   674 primitive gaussians,   283 cartesian basis functions
    96 alpha electrons       96 beta electrons
       nuclear repulsion energy      2404.7642624927 Hartrees.
 NAtoms=   47 NActive=   47 NUniq=   47 SFac= 1.00D+00 NAtFMM=   60 NAOKFM=F Big=F
 Integral buffers will be    131072 words long.
 Raffenetti 2 integral format.
 Two-electron integral symmetry is turned on.
 One-electron integrals computed using PRISM.
 NBasis=   283 RedAO= T EigKep=  4.05D-04  NBF=   283
 NBsUse=   283 1.00D-06 EigRej= -1.00D+00 NBFU=   283
 ExpMin= 1.61D-01 ExpMax= 7.00D+03 ExpMxC= 1.05D+03 IAcc=3 IRadAn=         5 AccDes= 0.00D+00
 Harris functional with IExCor=  402 and IRadAn=       5 diagonalized for initial guess.
 HarFok:  IExCor=  402 AccDes= 0.00D+00 IRadAn=         5 IDoV= 1 UseB2=F ITyADJ=14
 ICtDFT=  3500011 ScaDFX=  1.000000  1.000000  1.000000  1.000000
 FoFCou: FMM=F IPFlag=           0 FMFlag=      100000 FMFlg1=           0
         NFxFlg=           0 DoJE=T BraDBF=F KetDBF=T FulRan=T
         wScrn=  0.000000 ICntrl=       500 IOpCl=  0 I1Cent=   200000004 NGrid=           0
         NMat0=    1 NMatS0=      1 NMatT0=    0 NMatD0=    1 NMtDS0=    0 NMtDT0=    0
 Petite list used in FoFCou.
 Requested convergence on RMS density matrix=1.00D-08 within 128 cycles.
 Requested convergence on MAX density matrix=1.00D-06.
 Requested convergence on             energy=1.00D-06.
 No special actions if energy rises.
 Integral accuracy reduced to 1.0D-05 until final iterations.
 EnCoef did     1 forward-backward iterations
 Initial convergence to 1.0D-05 achieved.  Increase integral accuracy.
 SCF Done:  E(RB3LYP) =  -1225.81947795     A.U. after   20 cycles
            NFock= 20  Conv=0.73D-08     -V/T= 2.0033

 **********************************************************************

            Population analysis using the SCF Density.

 **********************************************************************

 Orbital symmetries:
       Occupied  (A) (A) (A) (A) (A) (A) (A) (A) (A) (A) (A) (A)
                 (A) (A) (A) (A) (A) (A) (A) (A) (A) (A) (A) (A)
                 (A) (A) (A) (A) (A) (A) (A) (A) (A) (A) (A) (A)
                 (A) (A) (A) (A) (A) (A) (A) (A) (A) (A) (A) (A)
                 (A) (A) (A) (A) (A) (A) (A) (A) (A) (A) (A) (A)
                 (A) (A) (A) (A) (A) (A) (A) (A) (A) (A) (A) (A)
                 (A) (A) (A) (A) (A) (A) (A) (A) (A) (A) (A) (A)
                 (A) (A) (A) (A) (A) (A) (A) (A) (A) (A) (A) (A)
       Virtual   (A) (A) (A) (A) (A) (A) (A) (A) (A) (A) (A) (A)
                 (A) (A) (A) (A) (A) (A) (A) (A) (A) (A) (A) (A)
                 (A) (A) (A) (A) (A) (A) (A) (A) (A) (A) (A) (A)
                 (A) (A) (A) (A) (A) (A) (A) (A) (A) (A) (A) (A)
                 (A) (A) (A) (A) (A) (A) (A) (A) (A) (A) (A) (A)
                 (A) (A) (A) (A) (A) (A) (A) (A) (A) (A) (A) (A)
                 (A) (A) (A) (A) (A) (A) (A) (A) (A) (A) (A) (A)
                 (A) (A) (A) (A) (A) (A) (A) (A) (A) (A) (A) (A)
                 (A) (A) (A) (A) (A) (A) (A) (A) (A) (A) (A) (A)
                 (A) (A) (A) (A) (A) (A) (A) (A) (A) (A) (A) (A)
                 (A) (A) (A) (A) (A) (A) (A) (A) (A) (A) (A) (A)
                 (A) (A) (A) (A) (A) (A) (A) (A) (A) (A) (A) (A)
                 (A) (A) (A) (A) (A) (A) (A) (A) (A) (A) (A) (A)
                 (A) (A) (A) (A) (A) (A) (A) (A) (A) (A) (A) (A)
                 (A) (A) (A) (A) (A) (A) (A) (A) (A) (A) (A) (A)
                 (A) (A) (A) (A) (A) (A) (A)
 The electronic state is 1-A.
 Alpha  occ. eigenvalues --  -24.75371 -19.32746 -19.15551 -14.53364 -14.42235
 Alpha  occ. eigenvalues --  -14.34754 -10.33002 -10.29724 -10.27007 -10.26661
 Alpha  occ. eigenvalues --  -10.25836 -10.24530 -10.23891 -10.20944 -10.20744
 Alpha  occ. eigenvalues --  -10.20742 -10.20104 -10.20011 -10.18914 -10.18757
 Alpha  occ. eigenvalues --  -10.18467 -10.18221 -10.18185 -10.18052 -10.16939
 Alpha  occ. eigenvalues --  -10.16914 -10.16198  -1.36158  -1.27824  -1.08414
 Alpha  occ. eigenvalues --   -0.97747  -0.93070  -0.92617  -0.91238  -0.88273
 Alpha  occ. eigenvalues --   -0.84359  -0.82417  -0.81007  -0.78092  -0.76658
 Alpha  occ. eigenvalues --   -0.74894  -0.73882  -0.72885  -0.70326  -0.69669
 Alpha  occ. eigenvalues --   -0.68630  -0.65883  -0.63737  -0.61902  -0.60540
 Alpha  occ. eigenvalues --   -0.60423  -0.60305  -0.58791  -0.57487  -0.55161
 Alpha  occ. eigenvalues --   -0.53470  -0.53216  -0.51750  -0.51235  -0.50601
 Alpha  occ. eigenvalues --   -0.49616  -0.49381  -0.47898  -0.47824  -0.46748
 Alpha  occ. eigenvalues --   -0.45726  -0.45170  -0.45027  -0.43931  -0.43636
 Alpha  occ. eigenvalues --   -0.42943  -0.42461  -0.42311  -0.42025  -0.41451
 Alpha  occ. eigenvalues --   -0.41360  -0.40360  -0.40077  -0.38160  -0.37283
 Alpha  occ. eigenvalues --   -0.36798  -0.36247  -0.35534  -0.34183  -0.34046
 Alpha  occ. eigenvalues --   -0.32113  -0.31544  -0.29699  -0.28133  -0.27736
 Alpha  occ. eigenvalues --   -0.27671  -0.25895  -0.23637  -0.22841  -0.19132
 Alpha  occ. eigenvalues --   -0.17685
 Alpha virt. eigenvalues --   -0.11009  -0.07784  -0.02988  -0.02011  -0.01489
 Alpha virt. eigenvalues --    0.00485   0.03542   0.05296   0.06808   0.08633
 Alpha virt. eigenvalues --    0.08679   0.10093   0.11267   0.11994   0.12072
 Alpha virt. eigenvalues --    0.12368   0.12729   0.13029   0.13584   0.13915
 Alpha virt. eigenvalues --    0.15458   0.15637   0.16367   0.16923   0.17523
 Alpha virt. eigenvalues --    0.17928   0.18339   0.18652   0.19168   0.19572
 Alpha virt. eigenvalues --    0.20613   0.20925   0.21334   0.22266   0.22763
 Alpha virt. eigenvalues --    0.23248   0.23414   0.24176   0.25402   0.27557
 Alpha virt. eigenvalues --    0.28350   0.30064   0.31491   0.33450   0.33983
 Alpha virt. eigenvalues --    0.35197   0.35709   0.37091   0.37952   0.38308
 Alpha virt. eigenvalues --    0.39364   0.41157   0.42889   0.44205   0.44639
 Alpha virt. eigenvalues --    0.46479   0.47364   0.48078   0.49950   0.50520
 Alpha virt. eigenvalues --    0.51147   0.52107   0.52386   0.53611   0.54266
 Alpha virt. eigenvalues --    0.54730   0.55957   0.56132   0.56260   0.56832
 Alpha virt. eigenvalues --    0.58031   0.58166   0.58447   0.58771   0.59266
 Alpha virt. eigenvalues --    0.59925   0.60118   0.60686   0.61002   0.61258
 Alpha virt. eigenvalues --    0.62593   0.62771   0.63638   0.63784   0.64543
 Alpha virt. eigenvalues --    0.64906   0.66147   0.66801   0.67627   0.68533
 Alpha virt. eigenvalues --    0.69431   0.69524   0.70310   0.70641   0.71662
 Alpha virt. eigenvalues --    0.73001   0.73855   0.74151   0.74532   0.75007
 Alpha virt. eigenvalues --    0.76306   0.77087   0.77907   0.78300   0.79515
 Alpha virt. eigenvalues --    0.80269   0.80961   0.82475   0.83243   0.83947
 Alpha virt. eigenvalues --    0.85237   0.86138   0.87040   0.87314   0.88296
 Alpha virt. eigenvalues --    0.88960   0.89448   0.91210   0.91585   0.93314
 Alpha virt. eigenvalues --    0.93538   0.93623   0.94414   0.94633   0.95863
 Alpha virt. eigenvalues --    0.96293   0.96310   0.97112   0.97906   0.98823
 Alpha virt. eigenvalues --    0.99097   0.99324   1.00417   1.00968   1.01724
 Alpha virt. eigenvalues --    1.02000   1.02368   1.04157   1.05220   1.06670
 Alpha virt. eigenvalues --    1.08059   1.09527   1.10399   1.11442   1.13091
 Alpha virt. eigenvalues --    1.13298   1.14842   1.16263   1.17268   1.17749
 Alpha virt. eigenvalues --    1.19062   1.20238   1.20728   1.21958   1.24644
 Alpha virt. eigenvalues --    1.25403   1.26831   1.28907   1.29692   1.31347
 Alpha virt. eigenvalues --    1.31468   1.33315   1.38790   1.39884   1.40404
 Alpha virt. eigenvalues --    1.41423   1.41647   1.43118   1.46464   1.48623
 Alpha virt. eigenvalues --    1.49864   1.50725   1.53231   1.54193   1.57258
 Alpha virt. eigenvalues --    1.60444   1.64083   1.67370   1.75621   1.78206
 Alpha virt. eigenvalues --    1.85537   1.89746   1.95724   2.00455   2.02181
 Alpha virt. eigenvalues --    2.05184   2.39303
          Condensed to atoms (all electrons):
               1          2          3          4          5          6
     1  C    5.129200   0.310125  -0.039910   0.005609  -0.000210   0.001038
     2  C    0.310125   4.816879   0.520216  -0.038871   0.005065  -0.013694
     3  C   -0.039910   0.520216   5.043901   0.485492  -0.044065  -0.040392
     4  C    0.005609  -0.038871   0.485492   5.051866   0.305039   0.448737
     5  C   -0.000210   0.005065  -0.044065   0.305039   5.328945  -0.047321
     6  C    0.001038  -0.013694  -0.040392   0.448737  -0.047321   5.050534
     7  C   -0.000002   0.000519   0.007610  -0.022275  -0.011080   0.357325
     8  C    0.000000   0.000039  -0.000334   0.008990  -0.000033   0.014517
     9  N    0.000000  -0.000000   0.000000  -0.000174  -0.000009   0.001745
    10  C   -0.000000  -0.000000  -0.000000   0.000001  -0.000000  -0.000207
    11  C    0.000000   0.000000  -0.000000  -0.000021  -0.000186   0.000991
    12  C    0.000000   0.000000   0.000003   0.000628   0.004038   0.002906
    13  C   -0.000000   0.000016   0.000092  -0.017822  -0.106401  -0.031402
    14  C    0.005832  -0.027805  -0.050114  -0.068343   0.008646   0.320270
    15  C   -0.000194   0.007429   0.000430   0.006181  -0.000158  -0.055438
    16  C    0.000008   0.000343  -0.000027  -0.000030   0.000001   0.001716
    17  C   -0.000011   0.000031   0.000003   0.000004  -0.000000  -0.000464
    18  C   -0.000000   0.000004  -0.000000  -0.000000   0.000000   0.000017
    19  C    0.000000   0.000000  -0.000000   0.000000   0.000000  -0.000000
    20  C    0.000000  -0.000000  -0.000000  -0.000000   0.000000  -0.000004
    21  C   -0.000000   0.000006  -0.000000  -0.000003   0.000000   0.000487
    22  F    0.000000  -0.000000   0.000000  -0.000000  -0.000000  -0.000016
    23  N   -0.000000   0.000000   0.000000   0.000000  -0.000000  -0.000000
    24  O    0.000000  -0.000000  -0.000000   0.000000   0.000000   0.000000
    25  N    0.000000  -0.000000  -0.000000  -0.000000  -0.000000   0.000000
    26  O    0.000000  -0.000000  -0.000000   0.000000  -0.000000   0.000000
    27  C   -0.043078   0.483719  -0.053138  -0.046966   0.000857  -0.107816
    28  H    0.371861  -0.034519  -0.002536   0.000340   0.000005   0.000001
    29  H    0.371586  -0.033193  -0.002023  -0.000108   0.000001   0.000015
    30  H    0.371753  -0.035972   0.002598  -0.000220   0.000003  -0.000013
    31  H   -0.006252  -0.038405   0.346765  -0.032560  -0.004558   0.004660
    32  H   -0.000001   0.000369  -0.003997  -0.028758   0.339810   0.003153
    33  H    0.000003  -0.000268   0.002022  -0.049856   0.425391   0.004335
    34  H    0.000002  -0.000068  -0.002264  -0.032558   0.380376  -0.001565
    35  H   -0.000000  -0.000002   0.000026   0.000289   0.000016  -0.010273
    36  H    0.000000  -0.000000  -0.000000   0.000000  -0.000000   0.000020
    37  H   -0.000000   0.000000   0.000000  -0.000000   0.000000   0.000003
    38  H    0.000000   0.000000  -0.000000  -0.000000   0.000000  -0.000007
    39  H    0.000000  -0.000000   0.000000   0.000000   0.000002  -0.000004
    40  H    0.000000  -0.000000   0.000000  -0.000000   0.000395  -0.000171
    41  H   -0.000000   0.000026  -0.000400   0.001457  -0.138680  -0.001397
    42  H    0.000000  -0.000002  -0.000017   0.001142   0.007268  -0.000875
    43  H   -0.000006   0.000481  -0.000019   0.000458  -0.000005  -0.008509
    44  H   -0.000037   0.001136   0.000008  -0.000115  -0.000001   0.012688
    45  H    0.000003   0.000034  -0.000003   0.000002   0.000000  -0.000043
    46  H   -0.000000   0.000000   0.000000   0.000000  -0.000000   0.000000
    47  H   -0.006778  -0.020208   0.004668   0.000903   0.000010   0.002381
               7          8          9         10         11         12
     1  C   -0.000002   0.000000   0.000000  -0.000000   0.000000   0.000000
     2  C    0.000519   0.000039  -0.000000  -0.000000   0.000000   0.000000
     3  C    0.007610  -0.000334   0.000000  -0.000000  -0.000000   0.000003
     4  C   -0.022275   0.008990  -0.000174   0.000001  -0.000021   0.000628
     5  C   -0.011080  -0.000033  -0.000009  -0.000000  -0.000186   0.004038
     6  C    0.357325   0.014517   0.001745  -0.000207   0.000991   0.002906
     7  C    5.058632   0.518194  -0.038373   0.005947  -0.015030  -0.020082
     8  C    0.518194   5.269138   0.193283  -0.047134  -0.051224  -0.014924
     9  N   -0.038373   0.193283   7.109292   0.240183   0.269909  -0.056387
    10  C    0.005947  -0.047134   0.240183   5.059015  -0.056825   0.004023
    11  C   -0.015030  -0.051224   0.269909  -0.056825   4.896929   0.619782
    12  C   -0.020082  -0.014924  -0.056387   0.004023   0.619782   5.042165
    13  C    0.297949  -0.071157  -0.022040   0.000616  -0.039112   0.288541
    14  C   -0.053099  -0.062090   0.001982   0.000019  -0.000074  -0.000356
    15  C    0.000881  -0.106569   0.002666   0.000027  -0.000109  -0.000027
    16  C    0.000058  -0.009129   0.000343  -0.000350   0.000001  -0.000000
    17  C   -0.000045  -0.000349   0.000002   0.000003  -0.000000  -0.000000
    18  C    0.000000   0.000019  -0.000000  -0.000000   0.000000   0.000000
    19  C   -0.000000  -0.000000   0.000000   0.000001   0.000000  -0.000000
    20  C    0.000004  -0.000048  -0.000002  -0.000049  -0.000000  -0.000000
    21  C    0.000303   0.004977  -0.000390   0.001764   0.000001   0.000000
    22  F    0.000268  -0.003541  -0.000511  -0.017109  -0.000031   0.000001
    23  N   -0.000000  -0.000000   0.000000  -0.000000  -0.000000   0.000000
    24  O   -0.000000   0.000000   0.000000   0.000000   0.000000  -0.000000
    25  N    0.000000  -0.000000  -0.000000  -0.000000   0.000000   0.000000
    26  O    0.000000  -0.000000  -0.000000   0.000000  -0.000000  -0.000000
    27  C    0.005984  -0.000664   0.000008  -0.000000  -0.000000  -0.000001
    28  H   -0.000000  -0.000000   0.000000   0.000000   0.000000  -0.000000
    29  H   -0.000000  -0.000000  -0.000000  -0.000000  -0.000000   0.000000
    30  H   -0.000000   0.000000   0.000000   0.000000   0.000000  -0.000000
    31  H   -0.000177   0.000001  -0.000000   0.000000  -0.000000  -0.000000
    32  H    0.000767   0.000012   0.000000  -0.000000   0.000003  -0.000152
    33  H    0.001899  -0.000565  -0.000029   0.000001  -0.000109   0.004105
    34  H    0.000374  -0.000054   0.000001  -0.000000  -0.000007   0.000160
    35  H   -0.063325   0.334532  -0.023553  -0.010621   0.003405   0.000252
    36  H    0.000260  -0.004822  -0.033733   0.374023   0.004941  -0.000277
    37  H   -0.000319   0.005183  -0.037578   0.360655  -0.004206   0.000395
    38  H    0.000680   0.003152  -0.067182   0.370211  -0.000076   0.001220
    39  H    0.000184   0.004068  -0.048813  -0.002786   0.363280  -0.041223
    40  H    0.003250   0.000697   0.003821  -0.000189  -0.035033   0.368921
    41  H   -0.060482   0.003858   0.000518   0.000007   0.002455  -0.024708
    42  H   -0.039840  -0.004882   0.003166  -0.000081  -0.005205  -0.042542
    43  H    0.003680   0.010256  -0.000656   0.000018  -0.000027   0.000028
    44  H   -0.000527   0.003246  -0.000075  -0.000003   0.000001   0.000000
    45  H   -0.000002  -0.000007   0.000000  -0.000000   0.000000  -0.000000
    46  H   -0.000000   0.000001   0.000000  -0.000017  -0.000000   0.000000
    47  H   -0.000201   0.000021  -0.000000   0.000000  -0.000000  -0.000000
              13         14         15         16         17         18
     1  C   -0.000000   0.005832  -0.000194   0.000008  -0.000011  -0.000000
     2  C    0.000016  -0.027805   0.007429   0.000343   0.000031   0.000004
     3  C    0.000092  -0.050114   0.000430  -0.000027   0.000003  -0.000000
     4  C   -0.017822  -0.068343   0.006181  -0.000030   0.000004  -0.000000
     5  C   -0.106401   0.008646  -0.000158   0.000001  -0.000000   0.000000
     6  C   -0.031402   0.320270  -0.055438   0.001716  -0.000464   0.000017
     7  C    0.297949  -0.053099   0.000881   0.000058  -0.000045   0.000000
     8  C   -0.071157  -0.062090  -0.106569  -0.009129  -0.000349   0.000019
     9  N   -0.022040   0.001982   0.002666   0.000343   0.000002  -0.000000
    10  C    0.000616   0.000019   0.000027  -0.000350   0.000003  -0.000000
    11  C   -0.039112  -0.000074  -0.000109   0.000001  -0.000000   0.000000
    12  C    0.288541  -0.000356  -0.000027  -0.000000  -0.000000   0.000000
    13  C    5.386845   0.007459  -0.000441  -0.000003  -0.000000   0.000000
    14  C    0.007459   5.614246   0.213657  -0.090048   0.000957   0.000397
    15  C   -0.000441   0.213657   5.831170   0.275952  -0.074889   0.009776
    16  C   -0.000003  -0.090048   0.275952   5.635095   0.281901   0.061200
    17  C   -0.000000   0.000957  -0.074889   0.281901   5.565885   0.132965
    18  C    0.000000   0.000397   0.009776   0.061200   0.132965   5.763839
    19  C   -0.000000  -0.000032   0.000390  -0.013311  -0.020868   0.152596
    20  C   -0.000000  -0.000037   0.005418  -0.108480  -0.041290  -0.057876
    21  C    0.000000   0.002219  -0.081254   0.191367  -0.101802  -0.025574
    22  F   -0.000000   0.000217   0.001929  -0.080350   0.002634  -0.000177
    23  N    0.000000  -0.000000  -0.000006  -0.000975   0.019146  -0.021431
    24  O    0.000000  -0.000000  -0.000000  -0.000190   0.013571  -0.142096
    25  N    0.000000   0.000004  -0.000134   0.009464  -0.076721  -0.211204
    26  O    0.000000   0.000000  -0.000005   0.000576   0.009931  -0.103146
    27  C   -0.000196   0.417560  -0.090434  -0.001315   0.002353   0.000008
    28  H    0.000000  -0.000196   0.000003  -0.000000  -0.000000   0.000000
    29  H   -0.000000  -0.000088   0.000006  -0.000000   0.000000  -0.000000
    30  H   -0.000000   0.000261  -0.000008  -0.000000  -0.000005  -0.000000
    31  H    0.000015   0.000747   0.000005  -0.000000   0.000000  -0.000000
    32  H    0.003802  -0.000297   0.000001  -0.000000   0.000000   0.000000
    33  H   -0.114133   0.000692  -0.000007  -0.000000   0.000000  -0.000000
    34  H    0.005000  -0.000214   0.000008   0.000000  -0.000000  -0.000000
    35  H    0.006041  -0.012525   0.011727  -0.002783   0.000873  -0.000041
    36  H   -0.000036   0.000019   0.000157   0.000665   0.000009  -0.000001
    37  H   -0.000024  -0.000000  -0.000034  -0.000004  -0.000000   0.000000
    38  H    0.000170  -0.000067   0.000157  -0.000138  -0.000004   0.000000
    39  H    0.005564   0.000001   0.000004   0.000000   0.000000  -0.000000
    40  H   -0.044830   0.000000   0.000000  -0.000000   0.000000   0.000000
    41  H    0.421835  -0.000146   0.000014   0.000000  -0.000000  -0.000000
    42  H    0.372427  -0.000209   0.000007  -0.000000  -0.000000   0.000000
    43  H   -0.000023  -0.036059   0.328923  -0.019472  -0.008293   0.000449
    44  H    0.000014   0.012722   0.246801   0.019272  -0.025231   0.002364
    45  H    0.000000  -0.000276  -0.007471  -0.040534   0.342418  -0.021384
    46  H    0.000000   0.000001  -0.000077   0.005531  -0.000563   0.007433
    47  H    0.000001  -0.048605  -0.002356  -0.002409   0.002049   0.000602
              19         20         21         22         23         24
     1  C    0.000000   0.000000  -0.000000   0.000000  -0.000000   0.000000
     2  C    0.000000  -0.000000   0.000006  -0.000000   0.000000  -0.000000
     3  C   -0.000000  -0.000000  -0.000000   0.000000   0.000000  -0.000000
     4  C    0.000000  -0.000000  -0.000003  -0.000000   0.000000   0.000000
     5  C    0.000000   0.000000   0.000000  -0.000000  -0.000000   0.000000
     6  C   -0.000000  -0.000004   0.000487  -0.000016  -0.000000   0.000000
     7  C   -0.000000   0.000004   0.000303   0.000268  -0.000000  -0.000000
     8  C   -0.000000  -0.000048   0.004977  -0.003541  -0.000000   0.000000
     9  N    0.000000  -0.000002  -0.000390  -0.000511   0.000000   0.000000
    10  C    0.000001  -0.000049   0.001764  -0.017109  -0.000000   0.000000
    11  C    0.000000  -0.000000   0.000001  -0.000031  -0.000000   0.000000
    12  C   -0.000000  -0.000000   0.000000   0.000001   0.000000  -0.000000
    13  C   -0.000000  -0.000000   0.000000  -0.000000   0.000000   0.000000
    14  C   -0.000032  -0.000037   0.002219   0.000217  -0.000000  -0.000000
    15  C    0.000390   0.005418  -0.081254   0.001929  -0.000006  -0.000000
    16  C   -0.013311  -0.108480   0.191367  -0.080350  -0.000975  -0.000190
    17  C   -0.020868  -0.041290  -0.101802   0.002634   0.019146   0.013571
    18  C    0.152596  -0.057876  -0.025574  -0.000177  -0.021431  -0.142096
    19  C    5.283578   0.335801   0.011268   0.003991   0.268368  -0.087667
    20  C    0.335801   5.258494   0.414877  -0.053712  -0.055682   0.006867
    21  C    0.011268   0.414877   5.052436   0.262677   0.005613  -0.000033
    22  F    0.003991  -0.053712   0.262677   9.153917  -0.000005   0.000000
    23  N    0.268368  -0.055682   0.005613  -0.000005   7.032316   0.030025
    24  O   -0.087667   0.006867  -0.000033   0.000000   0.030025   8.650258
    25  N    0.044452   0.014258   0.000378  -0.000000  -0.133797  -0.247801
    26  O    0.007740   0.000025   0.000000  -0.000000   0.003495  -0.059321
    27  C    0.000008   0.000007  -0.000551  -0.000002   0.000000   0.000000
    28  H   -0.000000  -0.000000   0.000000   0.000000  -0.000000   0.000000
    29  H   -0.000000   0.000000  -0.000000  -0.000000   0.000000   0.000000
    30  H    0.000000  -0.000000   0.000000  -0.000000   0.000000   0.000000
    31  H   -0.000000  -0.000000   0.000000   0.000000  -0.000000  -0.000000
    32  H   -0.000000  -0.000000  -0.000000   0.000000  -0.000000  -0.000000
    33  H   -0.000000   0.000000   0.000000  -0.000000   0.000000   0.000000
    34  H    0.000000  -0.000000  -0.000000   0.000000   0.000000  -0.000000
    35  H   -0.000010   0.000291  -0.001742   0.010283   0.000000  -0.000000
    36  H    0.000014  -0.000316   0.000175   0.004453   0.000000  -0.000000
    37  H   -0.000000   0.000003  -0.000053   0.000807   0.000000  -0.000000
    38  H   -0.000001  -0.000030   0.000703   0.001112  -0.000000  -0.000000
    39  H    0.000000   0.000000  -0.000000  -0.000000  -0.000000   0.000000
    40  H   -0.000000  -0.000000   0.000000   0.000000  -0.000000   0.000000
    41  H    0.000000  -0.000000  -0.000000   0.000000  -0.000000   0.000000
    42  H   -0.000000   0.000000   0.000000   0.000000  -0.000000  -0.000000
    43  H   -0.000089   0.000429  -0.006631   0.001390  -0.000000  -0.000000
    44  H   -0.000056  -0.000204   0.011070   0.000032   0.000000   0.000000
    45  H    0.006267   0.000846   0.002026  -0.000009  -0.000340   0.000367
    46  H   -0.029378   0.349544  -0.038963  -0.002362  -0.002505  -0.000093
    47  H   -0.000002   0.000001  -0.000054  -0.000000   0.000000  -0.000000
              25         26         27         28         29         30
     1  C    0.000000   0.000000  -0.043078   0.371861   0.371586   0.371753
     2  C   -0.000000  -0.000000   0.483719  -0.034519  -0.033193  -0.035972
     3  C   -0.000000  -0.000000  -0.053138  -0.002536  -0.002023   0.002598
     4  C   -0.000000   0.000000  -0.046966   0.000340  -0.000108  -0.000220
     5  C   -0.000000  -0.000000   0.000857   0.000005   0.000001   0.000003
     6  C    0.000000   0.000000  -0.107816   0.000001   0.000015  -0.000013
     7  C    0.000000   0.000000   0.005984  -0.000000  -0.000000  -0.000000
     8  C   -0.000000  -0.000000  -0.000664  -0.000000  -0.000000   0.000000
     9  N   -0.000000  -0.000000   0.000008   0.000000  -0.000000   0.000000
    10  C   -0.000000   0.000000  -0.000000   0.000000  -0.000000   0.000000
    11  C    0.000000  -0.000000  -0.000000   0.000000  -0.000000   0.000000
    12  C    0.000000  -0.000000  -0.000001  -0.000000   0.000000  -0.000000
    13  C    0.000000   0.000000  -0.000196   0.000000  -0.000000  -0.000000
    14  C    0.000004   0.000000   0.417560  -0.000196  -0.000088   0.000261
    15  C   -0.000134  -0.000005  -0.090434   0.000003   0.000006  -0.000008
    16  C    0.009464   0.000576  -0.001315  -0.000000  -0.000000  -0.000000
    17  C   -0.076721   0.009931   0.002353  -0.000000   0.000000  -0.000005
    18  C   -0.211204  -0.103146   0.000008   0.000000  -0.000000  -0.000000
    19  C    0.044452   0.007740   0.000008  -0.000000  -0.000000   0.000000
    20  C    0.014258   0.000025   0.000007  -0.000000   0.000000  -0.000000
    21  C    0.000378   0.000000  -0.000551   0.000000  -0.000000   0.000000
    22  F   -0.000000  -0.000000  -0.000002   0.000000  -0.000000  -0.000000
    23  N   -0.133797   0.003495   0.000000  -0.000000   0.000000   0.000000
    24  O   -0.247801  -0.059321   0.000000   0.000000   0.000000   0.000000
    25  N    7.607681   0.152028  -0.000002   0.000000   0.000000  -0.000000
    26  O    0.152028   8.327937   0.000005  -0.000000  -0.000000   0.000000
    27  C   -0.000002   0.000005   5.279419   0.002554  -0.002604  -0.002298
    28  H    0.000000  -0.000000   0.002554   0.565998  -0.030048  -0.028649
    29  H    0.000000  -0.000000  -0.002604  -0.030048   0.562083  -0.030074
    30  H   -0.000000   0.000000  -0.002298  -0.028649  -0.030074   0.567408
    31  H    0.000000  -0.000000   0.005637   0.003865   0.000446   0.000083
    32  H    0.000000  -0.000000   0.000021  -0.000004   0.000001   0.000000
    33  H   -0.000000   0.000000  -0.000021  -0.000000  -0.000000  -0.000000
    34  H    0.000000   0.000000   0.000022   0.000001  -0.000000  -0.000000
    35  H    0.000000  -0.000000   0.001034  -0.000000  -0.000000   0.000000
    36  H   -0.000000   0.000000  -0.000000   0.000000  -0.000000   0.000000
    37  H   -0.000000  -0.000000  -0.000000  -0.000000   0.000000  -0.000000
    38  H    0.000000  -0.000000   0.000000  -0.000000   0.000000  -0.000000
    39  H   -0.000000   0.000000   0.000000  -0.000000   0.000000  -0.000000
    40  H    0.000000  -0.000000  -0.000000  -0.000000   0.000000  -0.000000
    41  H    0.000000  -0.000000   0.000014   0.000000  -0.000000   0.000000
    42  H    0.000000  -0.000000   0.000007  -0.000000   0.000000  -0.000000
    43  H   -0.000000  -0.000000  -0.007893   0.000000   0.000000  -0.000002
    44  H   -0.000003   0.000003  -0.023958   0.000001  -0.000003  -0.000001
    45  H   -0.005383   0.010012   0.001343  -0.000000  -0.000001   0.000029
    46  H   -0.000070   0.000000  -0.000000   0.000000   0.000000  -0.000000
[...]
     7  C    0.000001   0.000000   0.008764  -0.000000  -0.000000  -0.000000
     8  C   -0.000000   0.000000   0.000047   0.000000  -0.000000   0.000000
     9  N    0.000000   0.000000  -0.000000  -0.000000   0.000000  -0.000000
    10  C    0.000000   0.000000  -0.000000   0.000000  -0.000000   0.000000
    11  C   -0.000002  -0.000004   0.000000  -0.000000   0.000000  -0.000000
    12  C    0.000046  -0.000287   0.000002   0.000000  -0.000000   0.000000
    13  C   -0.000033  -0.000063  -0.000110  -0.000000   0.000000  -0.000000
    14  C    0.000001  -0.000000   0.462758  -0.000199  -0.000182   0.000385
    15  C   -0.000116  -0.000001  -0.043471   0.000002   0.000004  -0.000002
    16  C    0.009043   0.000425  -0.008521   0.000000   0.000000  -0.000001
    17  C   -0.061426   0.006716  -0.000236  -0.000000   0.000000  -0.000000
    18  C   -0.152051  -0.094399   0.000033  -0.000000   0.000000   0.000000
    19  C    0.013866   0.005903  -0.000016   0.000000  -0.000000   0.000000
    20  C    0.011130   0.000001   0.000026  -0.000000  -0.000000  -0.000000
    21  C   -0.000391  -0.000012   0.004004  -0.000000  -0.000000   0.000001
    22  F   -0.000000  -0.000000  -0.001223  -0.000000  -0.000000  -0.000009
    23  N   -0.092580   0.002808  -0.000000  -0.000000   0.000000  -0.000000
    24  O    0.019335  -0.046865  -0.000000  -0.000000  -0.000000   0.000000
    25  N    7.193582   0.176669   0.000000   0.000000   0.000000   0.000000
    26  O    0.176669   8.280054  -0.000000  -0.000000  -0.000000   0.000000
    27  C    0.000000  -0.000000   5.113502   0.001329  -0.001326  -0.001137
    28  H    0.000000  -0.000000   0.001329   0.577673  -0.033340  -0.028971
    29  H    0.000000  -0.000000  -0.001326  -0.033340   0.578324  -0.030076
    30  H    0.000000   0.000000  -0.001137  -0.028971  -0.030076   0.572934
    31  H    0.000000  -0.000000   0.004797   0.002594   0.000941   0.000045
    32  H    0.000000  -0.000000  -0.000003   0.000003  -0.000002   0.000000
    33  H    0.000000  -0.000000   0.000026  -0.000001   0.000000  -0.000000
    34  H   -0.000000   0.000000  -0.000005   0.000000  -0.000000  -0.000000
    35  H    0.000000   0.000000  -0.000037  -0.000000   0.000000  -0.000000
    36  H    0.000000  -0.000000  -0.000000   0.000000  -0.000000   0.000000
    37  H   -0.000000  -0.000000  -0.000000  -0.000000   0.000000  -0.000000
    38  H   -0.000000   0.000000   0.000000  -0.000000   0.000000  -0.000000
    39  H    0.000000  -0.000001   0.000000  -0.000000   0.000000  -0.000000
    40  H   -0.000023   0.001538  -0.000000  -0.000000   0.000000   0.000000
    41  H    0.000033   0.000075  -0.000138   0.000000  -0.000000   0.000000
    42  H   -0.000001  -0.000000   0.000027   0.000000  -0.000000   0.000000
    43  H    0.000001  -0.000000  -0.003715   0.000000  -0.000001   0.000004
    44  H    0.000004   0.000000   0.004565  -0.000000  -0.000000   0.000000
    45  H   -0.006468   0.003291   0.000025   0.000000   0.000000  -0.000000
    46  H   -0.000023   0.000000   0.000003  -0.000000   0.000000   0.000000
    47  H   -0.000000  -0.000000   0.341615   0.000100   0.000165   0.005029
              31         32         33         34         35         36
     1  C   -0.005250  -0.000004   0.000004   0.000002  -0.000000   0.000000
     2  C   -0.043777   0.000424  -0.000216  -0.000181  -0.000011   0.000000
     3  C    0.346760  -0.002295  -0.001631   0.002086  -0.000022   0.000000
     4  C   -0.033274  -0.035239  -0.030099  -0.032690   0.000690  -0.000003
     5  C   -0.007275   0.361445   0.363388   0.364716   0.000078  -0.000001
     6  C    0.004495   0.003864  -0.003585  -0.005251  -0.002225   0.000001
     7  C   -0.000216   0.000367  -0.000127   0.008106  -0.040064   0.000506
     8  C   -0.000002   0.000053  -0.000124   0.003938   0.371251  -0.001173
     9  N   -0.000000  -0.000000   0.000016  -0.000199  -0.056777  -0.041796
    10  C    0.000000   0.000000  -0.000000  -0.000006  -0.002424   0.380132
    11  C   -0.000000  -0.000000  -0.000003   0.000044   0.003686   0.002572
    12  C   -0.000000  -0.000001  -0.000121   0.000008  -0.000262  -0.000231
    13  C    0.000001   0.000104  -0.000284  -0.000528   0.005314  -0.000003
    14  C    0.000748  -0.000180  -0.000153   0.000267   0.000876   0.000002
    15  C    0.000011   0.000002   0.000001   0.000005   0.000077   0.000002
    16  C   -0.000000   0.000000  -0.000001   0.000001   0.000035   0.000000
    17  C   -0.000000  -0.000000  -0.000000   0.000000  -0.000001   0.000000
    18  C    0.000000  -0.000000   0.000000  -0.000000   0.000000  -0.000000
    19  C    0.000000   0.000000   0.000000  -0.000000   0.000000  -0.000000
    20  C    0.000000  -0.000000   0.000000  -0.000000  -0.000000   0.000000
    21  C   -0.000000   0.000000  -0.000000   0.000000  -0.000000   0.000000
    22  F    0.000000   0.000000  -0.000000   0.000000  -0.000000  -0.000000
    23  N    0.000000   0.000000   0.000000  -0.000000  -0.000000  -0.000000
    24  O   -0.000000  -0.000000  -0.000000   0.000000  -0.000000   0.000000
    25  N    0.000000   0.000000   0.000000  -0.000000   0.000000   0.000000
    26  O   -0.000000  -0.000000  -0.000000   0.000000   0.000000  -0.000000
    27  C    0.004797  -0.000003   0.000026  -0.000005  -0.000037  -0.000000
    28  H    0.002594   0.000003  -0.000001   0.000000  -0.000000   0.000000
    29  H    0.000941  -0.000002   0.000000  -0.000000   0.000000  -0.000000
    30  H    0.000045   0.000000  -0.000000  -0.000000  -0.000000   0.000000
    31  H    0.606858   0.005694   0.000369   0.000079   0.000000  -0.000000
    32  H    0.005694   0.585176  -0.029904  -0.028579  -0.000001   0.000000
    33  H    0.000369  -0.029904   0.575835  -0.034542   0.000004  -0.000000
    34  H    0.000079  -0.028579  -0.034542   0.568097   0.000008   0.000006
    35  H    0.000000  -0.000001   0.000004   0.000008   0.573619   0.002193
    36  H   -0.000000   0.000000  -0.000000   0.000006   0.002193   0.565039
    37  H   -0.000000  -0.000000  -0.000000  -0.000000   0.000073  -0.024062
    38  H    0.000000  -0.000000   0.000000  -0.000000   0.000854  -0.041545
    39  H   -0.000000  -0.000000  -0.000000   0.000000  -0.000167   0.000059
    40  H    0.000000   0.000000   0.000002  -0.000002   0.000010   0.000002
    41  H   -0.000000  -0.000004  -0.000167   0.000122  -0.000166   0.000001
    42  H    0.000003  -0.000056   0.005675  -0.000820  -0.000079  -0.000006
    43  H   -0.000000  -0.000000  -0.000000  -0.000000  -0.000000  -0.000000
    44  H   -0.000000  -0.000000   0.000001  -0.000004   0.000340  -0.000009
    45  H    0.000000   0.000000   0.000000  -0.000000   0.000027  -0.000001
    46  H    0.000000   0.000000   0.000000  -0.000000  -0.000000   0.000000
    47  H   -0.000196  -0.000000  -0.000000  -0.000000   0.000001   0.000000
              37         38         39         40         41         42
     1  C    0.000000   0.000000  -0.000000  -0.000000   0.000000   0.000000
     2  C    0.000000  -0.000000  -0.000000  -0.000000  -0.000012  -0.000005
     3  C    0.000000  -0.000000   0.000000  -0.000000   0.000034  -0.000082
     4  C   -0.000000   0.000000   0.000000   0.000002  -0.000532   0.001575
     5  C   -0.000000   0.000000  -0.000000  -0.000001   0.000143   0.000491
     6  C    0.000002   0.000001  -0.000009  -0.000180  -0.000212  -0.003092
     7  C   -0.000205   0.000052  -0.000329   0.003057  -0.044641  -0.049191
     8  C    0.002366   0.001469   0.004369   0.000894   0.002515  -0.002407
     9  N   -0.041301  -0.058473  -0.059384   0.004238   0.000709   0.002075
    10  C    0.380807   0.368946  -0.002448  -0.000139   0.000010  -0.000005
    11  C   -0.001137   0.001159   0.371026  -0.030240   0.002577  -0.002910
    12  C    0.000439   0.000193  -0.030107   0.360904  -0.037407  -0.047483
    13  C   -0.000003   0.000011   0.005176  -0.036140   0.355235   0.372390
    14  C    0.000000  -0.000002  -0.000000  -0.000003   0.002116  -0.000262
    15  C    0.000000  -0.000014   0.000000  -0.000002   0.000069  -0.000029
    16  C   -0.000000  -0.000000  -0.000000   0.000013   0.001126   0.000001
    17  C    0.000000  -0.000007  -0.000005  -0.000041   0.007980  -0.000075
    18  C    0.000000   0.000000   0.000000  -0.000112  -0.000377   0.000009
    19  C   -0.000000   0.000000   0.000000   0.000001  -0.000047   0.000000
    20  C    0.000000  -0.000000   0.000000   0.000000  -0.000004  -0.000000
    21  C   -0.000000  -0.000000   0.000000  -0.000000  -0.000006  -0.000000
    22  F   -0.000000   0.000000  -0.000000   0.000000  -0.000000  -0.000000
    23  N   -0.000000   0.000000  -0.000000  -0.000000  -0.000000   0.000000
    24  O    0.000000  -0.000000  -0.000000   0.000001   0.000001  -0.000000
    25  N   -0.000000  -0.000000   0.000000  -0.000023   0.000033  -0.000001
    26  O   -0.000000   0.000000  -0.000001   0.001538   0.000075  -0.000000
    27  C   -0.000000   0.000000   0.000000  -0.000000  -0.000138   0.000027
    28  H   -0.000000  -0.000000  -0.000000  -0.000000   0.000000   0.000000
    29  H    0.000000   0.000000   0.000000   0.000000  -0.000000  -0.000000
    30  H   -0.000000  -0.000000  -0.000000   0.000000   0.000000   0.000000
    31  H   -0.000000   0.000000  -0.000000   0.000000  -0.000000   0.000003
    32  H   -0.000000  -0.000000  -0.000000   0.000000  -0.000004  -0.000056
    33  H   -0.000000   0.000000  -0.000000   0.000002  -0.000167   0.005675
    34  H   -0.000000  -0.000000   0.000000  -0.000002   0.000122  -0.000820
    35  H    0.000073   0.000854  -0.000167   0.000010  -0.000166  -0.000079
    36  H   -0.024062  -0.041545   0.000059   0.000002   0.000001  -0.000006
    37  H    0.562591  -0.041178   0.002186  -0.000001   0.000001  -0.000005
    38  H   -0.041178   0.618326   0.000795   0.000003  -0.000004   0.000005
    39  H    0.002186   0.000795   0.573071  -0.004851  -0.000153  -0.000065
    40  H   -0.000001   0.000003  -0.004851   0.569241  -0.002928   0.000797
    41  H    0.000001  -0.000004  -0.000153  -0.002928   0.638924  -0.054195
    42  H   -0.000005   0.000005  -0.000065   0.000797  -0.054195   0.631631
    43  H   -0.000000   0.000001   0.000000   0.000000  -0.000003   0.000001
    44  H   -0.000001   0.000089   0.000001   0.000001  -0.000311   0.000045
    45  H   -0.000002   0.000049   0.000064   0.000159  -0.005797   0.000513
    46  H    0.000000  -0.000000   0.000000   0.000000   0.000000  -0.000000
    47  H   -0.000000  -0.000000  -0.000000   0.000000   0.000002  -0.000000
              43         44         45         46         47
     1  C   -0.000002   0.000002  -0.000000  -0.000000  -0.007041
     2  C    0.000474  -0.000198  -0.000000   0.000000  -0.033359
     3  C   -0.000012  -0.000014   0.000000  -0.000000   0.005098
     4  C   -0.000143   0.000391   0.000010  -0.000000   0.000717
     5  C    0.000002   0.000002  -0.000001  -0.000000   0.000009
     6  C    0.003352  -0.009195  -0.000406   0.000000   0.003564
     7  C    0.000549   0.010626   0.004720  -0.000000  -0.000192
     8  C    0.000165   0.007752   0.001092  -0.000000  -0.000004
     9  N   -0.000005  -0.000769  -0.001230   0.000000  -0.000000
    10  C    0.000000  -0.000010  -0.000027   0.000000   0.000000
    11  C   -0.000000   0.000080   0.005088  -0.000000  -0.000000
    12  C    0.000002   0.000157   0.016502  -0.000000  -0.000000
    13  C   -0.000012  -0.000362  -0.002405  -0.000000   0.000001
    14  C   -0.036748  -0.031038   0.000208   0.000003  -0.037219
    15  C    0.362148   0.352562  -0.006784  -0.000067  -0.005238
    16  C   -0.037320  -0.040364  -0.024951   0.005095  -0.001585
    17  C    0.003980  -0.008086   0.332939  -0.000509  -0.000071
    18  C   -0.000262   0.000828  -0.033274   0.005730   0.000004
    19  C   -0.000013  -0.000034   0.003201  -0.031617  -0.000008
    20  C    0.000305  -0.000074   0.000464   0.352025   0.000176
    21  C   -0.008342   0.006042   0.003571  -0.035604   0.000898
    22  F    0.003101   0.000209  -0.000009  -0.002921   0.011330
    23  N    0.000000  -0.000000  -0.000119  -0.002305   0.000000
    24  O   -0.000000   0.000000   0.000059  -0.000082  -0.000000
    25  N    0.000001   0.000004  -0.006468  -0.000023  -0.000000
    26  O   -0.000000   0.000000   0.003291   0.000000  -0.000000
    27  C   -0.003715   0.004565   0.000025   0.000003   0.341615
    28  H    0.000000  -0.000000   0.000000  -0.000000   0.000100
    29  H   -0.000001  -0.000000   0.000000   0.000000   0.000165
    30  H    0.000004   0.000000  -0.000000   0.000000   0.005029
    31  H   -0.000000  -0.000000   0.000000   0.000000  -0.000196
    32  H   -0.000000  -0.000000   0.000000   0.000000  -0.000000
    33  H   -0.000000   0.000001   0.000000   0.000000  -0.000000
    34  H   -0.000000  -0.000004  -0.000000  -0.000000  -0.000000
    35  H   -0.000000   0.000340   0.000027  -0.000000   0.000001
    36  H   -0.000000  -0.000009  -0.000001   0.000000   0.000000
    37  H   -0.000000  -0.000001  -0.000002   0.000000  -0.000000
    38  H    0.000001   0.000089   0.000049  -0.000000  -0.000000
    39  H    0.000000   0.000001   0.000064   0.000000  -0.000000
    40  H    0.000000   0.000001   0.000159   0.000000   0.000000
    41  H   -0.000003  -0.000311  -0.005797   0.000000   0.000002
    42  H    0.000001   0.000045   0.000513  -0.000000  -0.000000
    43  H    0.579745  -0.032692   0.000130   0.000002   0.002663
    44  H   -0.032692   0.576612   0.003397   0.000002   0.000141
    45  H    0.000130   0.003397   0.506298   0.000009  -0.000002
    46  H    0.000002   0.000002   0.000009   0.525637   0.000005
    47  H    0.002663   0.000141  -0.000002   0.000005   0.578632
 Mulliken charges:
               1
     1  C   -0.483027
     2  C    0.134818
     3  C   -0.198411
     4  C    0.105563
     5  C   -0.476070
     6  C   -0.075258
     7  C   -0.026239
     8  C    0.114306
     9  N   -0.592247
    10  C   -0.245777
    11  C    0.125691
    12  C   -0.169173
    13  C   -0.310077
    14  C    0.108148
    15  C   -0.400888
    16  C    0.073241
    17  C   -0.071605
    18  C    0.424849
    19  C    0.096854
    20  C   -0.065783
    21  C    0.259656
    22  F   -0.318522
    23  N   -0.174501
    24  O   -0.200848
    25  N   -0.110598
    26  O   -0.335850
    27  C   -0.212458
    28  H    0.149629
    29  H    0.154545
    30  H    0.146684
    31  H    0.116594
    32  H    0.139138
    33  H    0.155637
    34  H    0.155322
    35  H    0.143096
    36  H    0.158314
    37  H    0.159431
    38  H    0.149270
    39  H    0.140772
    40  H    0.133801
    41  H    0.135433
    42  H    0.145534
    43  H    0.162651
    44  H    0.159312
    45  H    0.199660
    46  H    0.184618
    47  H    0.134765
 Sum of Mulliken charges =  -0.00000
 Mulliken charges with hydrogens summed into heavy atoms:
               1
     1  C   -0.032169
     2  C    0.134818
     3  C   -0.081817
     4  C    0.105563
     5  C   -0.025973
     6  C   -0.075258
     7  C   -0.026239
     8  C    0.257402
     9  N   -0.592247
    10  C    0.221238
    11  C    0.266464
    12  C   -0.035372
    13  C   -0.029110
    14  C    0.108148
    15  C   -0.078925
    16  C    0.073241
    17  C    0.128056
    18  C    0.424849
    19  C    0.096854
    20  C    0.118835
    21  C    0.259656
    22  F   -0.318522
    23  N   -0.174501
    24  O   -0.200848
    25  N   -0.110598
    26  O   -0.335850
    27  C   -0.077694
 Electronic spatial extent (au):  <R**2>=          10198.9013
 Charge=             -0.0000 electrons
 Dipole moment (field-independent basis, Debye):
    X=              5.0763    Y=             -0.4772    Z=             -2.8016  Tot=              5.8177
 Quadrupole moment (field-independent basis, Debye-Ang):
   XX=           -177.2765   YY=           -146.2243   ZZ=           -153.0357
   XY=             -6.9791   XZ=              6.8546   YZ=              8.7743
 Traceless Quadrupole moment (field-independent basis, Debye-Ang):
   XX=            -18.4310   YY=             12.6211   ZZ=              5.8098
   XY=             -6.9791   XZ=              6.8546   YZ=              8.7743
 Octapole moment (field-independent basis, Debye-Ang**2):
  XXX=            142.4592  YYY=            -26.4403  ZZZ=            -10.0343  XYY=             29.5642
  XXY=             25.5047  XXZ=            -39.9555  XZZ=             10.0354  YZZ=            -14.4945
  YYZ=            -33.2375  XYZ=             16.8080
 Hexadecapole moment (field-independent basis, Debye-Ang**3):
 XXXX=          -7997.4471 YYYY=          -4764.5001 ZZZZ=          -1181.7524 XXXY=             12.1505
 XXXZ=            232.8066 YYYX=            -73.7927 YYYZ=            144.5091 ZZZX=            -36.8150
 ZZZY=             -4.3568 XXYY=          -2034.0673 XXZZ=          -1396.9052 YYZZ=          -1029.9812
 XXYZ=             48.7601 YYXZ=            -41.7313 ZZXY=            -18.8136
 N-N= 2.429373124152D+03 E-N=-7.715772013111D+03  KE= 1.219637590380D+03
 Unable to Open any file for archive entry.
 1\1\GINC-N1\FOpt\RB3LYP\6-31G\C21H20F1N3O2\HPCMGAC13\10-Jun-2025\0\\# 
 opt b3lyp/6-31g\\[No Title]\\0,1\C,-4.422222267,2.8805050352,5.1008250
 281\C,-3.7777582359,2.5699684211,3.767570236\C,-2.5343230715,3.1188435
 983,3.4239637417\C,-1.9261474249,2.8618844507,2.1887829789\C,-0.585247
 987,3.4960958724,1.8809324177\C,-2.5760208693,2.0226181714,1.244187583
 2\C,-1.906153477,1.7174580214,-0.0603656849\C,-2.2651135734,2.35249374
 12,-1.200122698\N,-1.7186217784,2.0587236804,-2.4566398176\C,-2.241450
 7137,2.7106410792,-3.6556980525\C,-0.9351677865,0.9002874441,-2.564492
 1339\C,-0.5115155167,0.2107019997,-1.4877705217\C,-0.772020012,0.68839
 80512,-0.0724016812\C,-3.8361524797,1.4663903328,1.5817014618\C,-4.608
 9866814,0.5621955501,0.613148305\C,-4.3215544917,-0.9217251192,0.77615
 82977\C,-3.4126640077,-1.5818773105,-0.0212473774\C,-3.1821585323,-2.9
 609109377,0.2193414941\C,-3.8676222227,-3.6921979086,1.2438559672\C,-4
 .82586595,-3.0135131671,2.0519912017\C,-5.0089520945,-1.6874669499,1.7
 905547967\F,-5.9579529932,-1.0018203906,2.5453231348\N,-3.5005265322,-
 4.9784286749,1.3006258485\O,-2.5310935298,-5.1530152857,0.2922264744\N
 ,-2.3365100937,-3.7889143262,-0.4150689769\O,-1.5146139176,-3.68709577
 23,-1.3504743187\C,-4.4127162769,1.747138366,2.8315247883\H,-3.7042650
 45,2.7879235964,5.9242389349\H,-4.8122818639,3.9069669515,5.1270431465
 \H,-5.2587975059,2.2050782641,5.3057020012\H,-2.0261855208,3.768898852
 8,4.1324693274\H,-0.3806397101,4.32480074,2.5659332575\H,0.2372079941,
 2.7761488117,1.9847822596\H,-0.5472865607,3.8790407029,0.8561133935\H,
 -3.0306942327,3.1217236711,-1.2009046652\H,-2.4633934693,3.7588721921,
 -3.4375300652\H,-1.486042183,2.6854777601,-4.445733723\H,-3.1575282559
 ,2.2322609541,-4.0352985622\H,-0.7139308322,0.5851390403,-3.5780806479
 \H,0.0609417894,-0.6992317861,-1.6329031791\H,-1.0292431289,-0.1575804
 935,0.5827382675\H,0.1462109938,1.1173318313,0.3702351481\H,-5.6804076
 667,0.7323810578,0.75987641\H,-4.3683121049,0.8404174605,-0.414202165\
 H,-2.8721733825,-1.0701654009,-0.8093574187\H,-5.3808340008,-3.5276204
 536,2.8240355451\H,-5.3735272174,1.3071328745,3.0775216818\\Version=ES
 64L-G16RevC.02\State=1-A\HF=-1226.3074824\RMSD=4.180e-09\RMSF=4.612e-0
 6\Dipole=-0.6180722,2.1718937,-0.373812\Quadrupole=1.323859,-13.710154
 3,12.3862953,5.130871,1.5278224,-6.5161257\PG=C01 [X(C21H20F1N3O2)]\\@
 The archive entry for this job was punched.


 SLITHERY-DITHERY
 FRIEDRICH A. KEKULE
 DREAMT ON A BUS OF THINGS
 FREUD WOULD THINK KEEN.
 MOST OF THE TIME THEY WERE
 HERPETOLOGICAL
 BITING THEIR TAILS IN THE
 SHAPE OF BENZENE.
 Job cpu time:       0 days  3 hours 13 minutes 19.2 seconds.
 Elapsed time:       0 days  0 hours 25 minutes  3.3 seconds.
 File lengths (MBytes):  RWF=     69 Int=      0 D2E=      0 Chk=      9 Scr=      2
 Normal termination of Gaussian 16 at Tue Jun 10 13:05:10 2025.
