 Entering Gaussian System, Link 0=g16
 Input=M2019.gjf
 Output=M2019.log
 Initial command:
 /hpc/softwares/Gaussian/g16/l1.exe "/hpc/home/hpcmgac13/pbs.11027.admin1.x8z/Gau-1462080.inp" -scrdir="/hpc/home/hpcmgac13/pbs.11027.admin1.x8z/"
 Default linda workers: n1
 Default is to use  16 SMP processors on each worker.
 Entering Link 1 = /hpc/softwares/Gaussian/g16/l1.exe PID=   1462081.
  
 Copyright (c) 1988-2021, Gaussian, Inc.  All Rights Reserved.
  
 This is part of the Gaussian(R) 16 program.  It is based on
 the Gaussian(R) 09 system (copyright 2009, Gaussian, Inc.),
 the Gaussian(R) 03 system (copyright 2003, Gaussian, Inc.),
 the Gaussian(R) 98 system (copyright 1998, Gaussian, Inc.),
 the Gaussian(R) 94 system (copyright 1995, Gaussian, Inc.),
 the Gaussian 92(TM) system (copyright 1992, Gaussian, Inc.),
 the Gaussian 90(TM) system (copyright 1990, Gaussian, Inc.),
 the Gaussian 88(TM) system (copyright 1988, Gaussian, Inc.),
 the Gaussian 86(TM) system (copyright 1986, Carnegie Mellon
 University), and the Gaussian 82(TM) system (copyright 1983,
 Carnegie Mellon University). Gaussian is a federally registered
 trademark of Gaussian, Inc.
  
 This software contains proprietary and confidential information,
 including trade secrets, belonging to Gaussian, Inc.
  
 This software is provided under written license and may be
 used, copied, transmitted, or stored only in accord with that
 written license.
  
 The following legend is applicable only to US Government
 contracts under FAR:
  
                    RESTRICTED RIGHTS LEGEND
  
 Use, reproduction and disclosure by the US Government is
 subject to restrictions as set forth in subparagraphs (a)
 and (c) of the Commercial Computer Software - Restricted
 Rights clause in FAR 52.227-19.
  
 Gaussian, Inc.
 340 Quinnipiac St., Bldg. 40, Wallingford CT 06492
  
  
 ---------------------------------------------------------------
 Warning -- This program may not be used in any manner that
 competes with the business of Gaussian, Inc. or will provide
 assistance to any competitor of Gaussian, Inc.  The licensee
 of this program is prohibited from giving any competitor of
 Gaussian, Inc. access to this program.  By using this program,
 the user acknowledges that Gaussian, Inc. is engaged in the
 business of creating and licensing software in the field of
 computational chemistry and represents and warrants to the
 licensee that it is not a competitor of Gaussian, Inc. and that
 it will not use this program in any manner prohibited above.
 ---------------------------------------------------------------
  

 Cite this work as:
 Gaussian 16, Revision C.02,
 M. J. Frisch, G. W. Trucks, H. B. Schlegel, G. E. Scuseria, 
 M. A. Robb, J. R. Cheeseman, G. Scalmani, V. Barone, 
 G. A. Petersson, H. Nakatsuji, X. Li, M. Caricato, A. V. Marenich, 
 J. Bloino, B. G. Janesko, R. Gomperts, B. Mennucci, H. P. Hratchian, 
 J. V. Ortiz, A. F. Izmaylov, J. L. Sonnenberg, D. Williams-Young, 
 F. Ding, F. Lipparini, F. Egidi, J. Goings, B. Peng, A. Petrone, 
 T. Henderson, D. Ranasinghe, V. G. Zakrzewski, J. Gao, N. Rega, 
 G. Zheng, W. Liang, M. Hada, M. Ehara, K. Toyota, R. Fukuda, 
 J. Hasegawa, M. Ishida, T. Nakajima, Y. Honda, O. Kitao, H. Nakai, 
 T. Vreven, K. Throssell, J. A. Montgomery, Jr., J. E. Peralta, 
 F. Ogliaro, M. J. Bearpark, J. J. Heyd, E. N. Brothers, K. N. Kudin, 
 V. N. Staroverov, T. A. Keith, R. Kobayashi, J. Normand, 
 K. Raghavachari, A. P. Rendell, J. C. Burant, S. S. Iyengar, 
 J. Tomasi, M. Cossi, J. M. Millam, M. Klene, C. Adamo, R. Cammi, 
 J. W. Ochterski, R. L. Martin, K. Morokuma, O. Farkas, 
 J. B. Foresman, and D. J. Fox, Gaussian, Inc., Wallingford CT, 2019.
 
 ******************************************
 Gaussian 16:  ES64L-G16RevC.02  7-Dec-2021
                11-Jun-2025 
 ******************************************
 SetLPE:    new flags="-opt 'Tsnet.Node.lindarsharg: ssh'  -nodelist 'n1' -env GAUSS_MDEF=4294967296 -env GAUSS_EXEDIR="/hpc/softwares/Gaussian/g16/bsd:/hpc/softwares/Gaussian/g16""
 Will use up to    1 processors via Linda.
 -----------------
 # opt b3lyp/6-31g
 -----------------
 1/18=20,19=15,26=3,38=1/1,3;
 2/9=110,12=2,17=6,18=5,40=1/2;
 3/5=1,6=6,11=2,25=1,30=1,71=1,74=-5/1,2,3;
 4//1;
 5/5=2,38=5/2;
 6/7=2,8=2,9=2,10=2,28=1/1;
 7//1,2,3,16;
 1/18=20,19=15,26=3/3(2);
 2/9=110/2;
 99//99;
 2/9=110/2;
 3/5=1,6=6,11=2,25=1,30=1,71=1,74=-5/1,2,3;
 4/5=5,16=3,69=1/1;
 5/5=2,38=5/2;
 7//1,2,3,16;
 1/18=20,19=15,26=3/3(-5);
 2/9=110/2;
 6/7=2,8=2,9=2,10=2,19=2,28=1/1;
 99/9=1/99;
 ----------
 [No Title]
 ----------
 Symbolic Z-matrix:
 Charge =  0 Multiplicity = 1
 C                     0.89774   4.1947   -1.11861 
 C                    -0.01275   3.04615  -0.81389 
 C                     0.52195   1.80155  -0.48139 
 C                    -0.32645   0.73135  -0.19759 
 C                    -1.70945   0.90585  -0.24619 
 C                    -2.52262  -0.11997   0.02586 
 C                    -3.85204   0.05474  -0.02271 
 N                    -4.72372  -0.96754   0.24816 
 C                    -6.16899  -0.70868   0.17686 
 C                    -4.29     -2.22368   0.58345 
 C                    -2.98413  -2.52091   0.66472 
 C                    -1.9352   -1.46696   0.38562 
 C                    -0.64429  -1.69816   0.44926 
 C                     0.54733  -1.91157   0.508 
 C                     1.83825  -2.14277   0.57164 
 C                     2.70696  -1.16036   0.31131 
 C                     4.01995  -1.4329    0.386 
 C                     4.43839  -2.82163   0.7566 
 C                     5.95897  -2.90396   0.78095 
 C                     3.89227  -3.80673  -0.26851 
 C                     3.88985  -3.16773   2.13458 
 C                     5.09038  -0.41214   0.11578 
 O                     6.27133  -0.6573    0.18293 
 C                     4.54911   0.94329  -0.2461 
 C                     5.52179   2.0433   -0.53748 
 C                     4.75993   3.31732  -0.87804 
 C                     6.39963   1.64529  -1.71667 
 C                     6.39585   2.28696   0.6857 
 C                     3.23607   1.21576  -0.32082 
 C                     2.16564   0.19501  -0.0506 
 C                    -2.24415   2.15045  -0.57859 
 C                    -1.39575   3.22065  -0.86249 
 H                     1.9565    3.86348  -1.02873 
 H                     0.7083    4.5527   -2.1553 
 H                     0.70545   5.02146  -0.3987 
 H                     1.61264   1.66398  -0.44298 
 H                    -4.25284   1.04447  -0.28688 
 H                    -6.34264   0.35358  -0.10637 
 H                    -6.62753  -1.37552  -0.58724 
 H                    -6.63084  -0.90801   1.16969 
 H                    -5.03193  -3.00873   0.79137 
 H                    -2.67327  -3.54039   0.93681 
 H                     2.20502  -3.14473   0.83914 
 H                     6.38902  -1.91182   0.51734 
 H                     6.29791  -3.19566   1.80016 
 H                     6.30103  -3.66417   0.0435 
 H                     3.31507  -3.25459  -1.04359 
 H                     4.73782  -4.34647  -0.75069 
 H                     3.22514  -4.5387    0.23937 
 H                     3.31093  -2.30406   2.53169 
 H                     3.22336  -4.05562   2.05571 
 H                     4.73397  -3.39635   2.82304 
 H                     3.66562   3.12059  -0.82744 
 H                     5.02706   4.1148   -0.14904 
 H                     5.03021   3.64745  -1.90601 
 H                     6.10446   0.63366  -2.0748 
 H                     6.26992   2.38236  -2.54049 
 H                     7.4655    1.62899  -1.39664 
 H                     6.09928   1.58796   1.49947 
 H                     7.46254   2.11399   0.41919 
 H                     6.26457   3.33648   1.03217 
 H                     2.92857   2.23618  -0.59318 
 H                     1.53672   0.55931   0.79232 
 H                     1.58302   0.07451  -0.99124 
 H                    -1.81739   4.20222  -1.1247 
 C                    -3.77111   2.34309  -0.63216 
 H                    -4.189     1.67951  -1.36013 
 H                    -4.19149   2.12928   0.32829 
 H                    -3.99379   3.35431  -0.90187 
 H                     0.08368  -0.22346   0.05739 
 

 GradGradGradGradGradGradGradGradGradGradGradGradGradGradGradGradGradGrad
 Berny optimization.
 Initialization pass.
                           ----------------------------
                           !    Initial Parameters    !
                           ! (Angstroms and Degrees)  !
 --------------------------                            --------------------------
 ! Name  Definition              Value          Derivative Info.                !
 --------------------------------------------------------------------------------
 ! R1    R(1,2)                  1.497          estimate D2E/DX2                !
 ! R2    R(1,33)                 1.113          estimate D2E/DX2                !
 ! R3    R(1,34)                 1.113          estimate D2E/DX2                !
 ! R4    R(1,35)                 1.113          estimate D2E/DX2                !
 ! R5    R(2,3)                  1.3948         estimate D2E/DX2                !
 ! R6    R(2,32)                 1.3948         estimate D2E/DX2                !
 ! R7    R(3,4)                  1.3949         estimate D2E/DX2                !
 ! R8    R(3,36)                 1.1            estimate D2E/DX2                !
 ! R9    R(4,5)                  1.3948         estimate D2E/DX2                !
 ! R10   R(4,70)                 1.07           estimate D2E/DX2                !
 ! R11   R(5,6)                  1.337          estimate D2E/DX2                !
 ! R12   R(5,31)                 1.3948         estimate D2E/DX2                !
 ! R13   R(6,7)                  1.3417         estimate D2E/DX2                !
 ! R14   R(6,12)                 1.5129         estimate D2E/DX2                !
 ! R15   R(7,8)                  1.3705         estimate D2E/DX2                !
 ! R16   R(7,37)                 1.1            estimate D2E/DX2                !
 ! R17   R(8,9)                  1.47           estimate D2E/DX2                !
 ! R18   R(8,10)                 1.3705         estimate D2E/DX2                !
 ! R19   R(9,38)                 1.113          estimate D2E/DX2                !
 ! R20   R(9,39)                 1.113          estimate D2E/DX2                !
 ! R21   R(9,40)                 1.113          estimate D2E/DX2                !
 ! R22   R(10,11)                1.3417         estimate D2E/DX2                !
 ! R23   R(10,41)                1.1            estimate D2E/DX2                !
 ! R24   R(11,12)                1.5129         estimate D2E/DX2                !
 ! R25   R(11,42)                1.1            estimate D2E/DX2                !
 ! R26   R(12,13)                1.313          estimate D2E/DX2                !
 ! R27   R(13,14)                1.212          estimate D2E/DX2                !
 ! R28   R(14,15)                1.313          estimate D2E/DX2                !
 ! R29   R(15,16)                1.337          estimate D2E/DX2                !
 ! R30   R(15,43)                1.1            estimate D2E/DX2                !
 ! R31   R(16,17)                1.3431         estimate D2E/DX2                !
 ! R32   R(16,30)                1.5037         estimate D2E/DX2                !
 ! R33   R(17,18)                1.497          estimate D2E/DX2                !
 ! R34   R(17,22)                1.5036         estimate D2E/DX2                !
 ! R35   R(18,19)                1.523          estimate D2E/DX2                !
 ! R36   R(18,20)                1.523          estimate D2E/DX2                !
 ! R37   R(18,21)                1.523          estimate D2E/DX2                !
 ! R38   R(19,44)                1.113          estimate D2E/DX2                !
 ! R39   R(19,45)                1.113          estimate D2E/DX2                !
 ! R40   R(19,46)                1.113          estimate D2E/DX2                !
 ! R41   R(20,47)                1.113          estimate D2E/DX2                !
 ! R42   R(20,48)                1.113          estimate D2E/DX2                !
 ! R43   R(20,49)                1.113          estimate D2E/DX2                !
 ! R44   R(21,50)                1.113          estimate D2E/DX2                !
 ! R45   R(21,51)                1.113          estimate D2E/DX2                !
 ! R46   R(21,52)                1.113          estimate D2E/DX2                !
 ! R47   R(22,23)                1.208          estimate D2E/DX2                !
 ! R48   R(22,24)                1.5037         estimate D2E/DX2                !
 ! R49   R(24,25)                1.497          estimate D2E/DX2                !
 ! R50   R(24,29)                1.3431         estimate D2E/DX2                !
 ! R51   R(25,26)                1.523          estimate D2E/DX2                !
 ! R52   R(25,27)                1.523          estimate D2E/DX2                !
 ! R53   R(25,28)                1.523          estimate D2E/DX2                !
 ! R54   R(26,53)                1.113          estimate D2E/DX2                !
 ! R55   R(26,54)                1.113          estimate D2E/DX2                !
 ! R56   R(26,55)                1.113          estimate D2E/DX2                !
 ! R57   R(27,56)                1.113          estimate D2E/DX2                !
 ! R58   R(27,57)                1.113          estimate D2E/DX2                !
 ! R59   R(27,58)                1.113          estimate D2E/DX2                !
 ! R60   R(28,59)                1.113          estimate D2E/DX2                !
 ! R61   R(28,60)                1.113          estimate D2E/DX2                !
 ! R62   R(28,61)                1.113          estimate D2E/DX2                !
 ! R63   R(29,30)                1.5036         estimate D2E/DX2                !
 ! R64   R(29,62)                1.1            estimate D2E/DX2                !
 ! R65   R(30,63)                1.113          estimate D2E/DX2                !
 ! R66   R(30,64)                1.113          estimate D2E/DX2                !
 ! R67   R(31,32)                1.3949         estimate D2E/DX2                !
 ! R68   R(31,66)                1.54           estimate D2E/DX2                !
 ! R69   R(32,65)                1.1            estimate D2E/DX2                !
 ! R70   R(66,67)                1.07           estimate D2E/DX2                !
 ! R71   R(66,68)                1.07           estimate D2E/DX2                !
 ! R72   R(66,69)                1.07           estimate D2E/DX2                !
 ! A1    A(2,1,33)             109.4999         estimate D2E/DX2                !
 ! A2    A(2,1,34)             109.4419         estimate D2E/DX2                !
 ! A3    A(2,1,35)             109.4618         estimate D2E/DX2                !
 ! A4    A(33,1,34)            109.4418         estimate D2E/DX2                !
 ! A5    A(33,1,35)            109.4619         estimate D2E/DX2                !
 ! A6    A(34,1,35)            109.52           estimate D2E/DX2                !
 ! A7    A(1,2,3)              119.9986         estimate D2E/DX2                !
 ! A8    A(1,2,32)             119.9985         estimate D2E/DX2                !
 ! A9    A(3,2,32)             120.0029         estimate D2E/DX2                !
 ! A10   A(2,3,4)              119.9969         estimate D2E/DX2                !
 ! A11   A(2,3,36)             120.0016         estimate D2E/DX2                !
 ! A12   A(4,3,36)             120.0015         estimate D2E/DX2                !
 ! A13   A(3,4,5)              120.0002         estimate D2E/DX2                !
 ! A14   A(3,4,70)             119.9999         estimate D2E/DX2                !
 ! A15   A(5,4,70)             119.9999         estimate D2E/DX2                !
 ! A16   A(4,5,6)              119.9983         estimate D2E/DX2                !
 ! A17   A(4,5,31)             120.0032         estimate D2E/DX2                !
 ! A18   A(6,5,31)             119.9984         estimate D2E/DX2                !
 ! A19   A(5,6,7)              119.6931         estimate D2E/DX2                !
 ! A20   A(5,6,12)             119.6931         estimate D2E/DX2                !
 ! A21   A(7,6,12)             120.6137         estimate D2E/DX2                !
 ! A22   A(6,7,8)              121.7298         estimate D2E/DX2                !
 ! A23   A(6,7,37)             119.135          estimate D2E/DX2                !
 ! A24   A(8,7,37)             119.1352         estimate D2E/DX2                !
 ! A25   A(7,8,9)              118.9726         estimate D2E/DX2                !
 ! A26   A(7,8,10)             122.0549         estimate D2E/DX2                !
 ! A27   A(9,8,10)             118.9725         estimate D2E/DX2                !
 ! A28   A(8,9,38)             109.5            estimate D2E/DX2                !
 ! A29   A(8,9,39)             109.4419         estimate D2E/DX2                !
 ! A30   A(8,9,40)             109.4619         estimate D2E/DX2                !
 ! A31   A(38,9,39)            109.4418         estimate D2E/DX2                !
 ! A32   A(38,9,40)            109.4618         estimate D2E/DX2                !
 ! A33   A(39,9,40)            109.52           estimate D2E/DX2                !
 ! A34   A(8,10,11)            121.7254         estimate D2E/DX2                !
 ! A35   A(8,10,41)            119.1373         estimate D2E/DX2                !
 ! A36   A(11,10,41)           119.1372         estimate D2E/DX2                !
 ! A37   A(10,11,12)           120.6157         estimate D2E/DX2                !
 ! A38   A(10,11,42)           119.6921         estimate D2E/DX2                !
 ! A39   A(12,11,42)           119.6922         estimate D2E/DX2                !
 ! A40   A(6,12,11)            113.2604         estimate D2E/DX2                !
 ! A41   A(6,12,13)            123.3698         estimate D2E/DX2                !
 ! A42   A(11,12,13)           123.3698         estimate D2E/DX2                !
 ! A43   A(14,15,16)           120.0            estimate D2E/DX2                !
 ! A44   A(14,15,43)           120.0            estimate D2E/DX2                !
 ! A45   A(16,15,43)           120.0            estimate D2E/DX2                !
 ! A46   A(15,16,17)           118.3768         estimate D2E/DX2                !
 ! A47   A(15,16,30)           118.3769         estimate D2E/DX2                !
 ! A48   A(17,16,30)           123.2463         estimate D2E/DX2                !
 ! A49   A(16,17,18)           118.3773         estimate D2E/DX2                !
 ! A50   A(16,17,22)           123.2453         estimate D2E/DX2                !
 ! A51   A(18,17,22)           118.3774         estimate D2E/DX2                !
 ! A52   A(17,18,19)           109.4618         estimate D2E/DX2                !
 ! A53   A(17,18,20)           109.4619         estimate D2E/DX2                !
 ! A54   A(17,18,21)           109.52           estimate D2E/DX2                !
 ! A55   A(19,18,20)           109.5            estimate D2E/DX2                !
 ! A56   A(19,18,21)           109.4418         estimate D2E/DX2                !
 ! A57   A(20,18,21)           109.4418         estimate D2E/DX2                !
 ! A58   A(18,19,44)           109.5            estimate D2E/DX2                !
 ! A59   A(18,19,45)           109.4418         estimate D2E/DX2                !
 ! A60   A(18,19,46)           109.4618         estimate D2E/DX2                !
 ! A61   A(44,19,45)           109.4418         estimate D2E/DX2                !
 ! A62   A(44,19,46)           109.4619         estimate D2E/DX2                !
 ! A63   A(45,19,46)           109.52           estimate D2E/DX2                !
 ! A64   A(18,20,47)           109.5            estimate D2E/DX2                !
 ! A65   A(18,20,48)           109.4418         estimate D2E/DX2                !
 ! A66   A(18,20,49)           109.4618         estimate D2E/DX2                !
 ! A67   A(47,20,48)           109.4419         estimate D2E/DX2                !
 ! A68   A(47,20,49)           109.4619         estimate D2E/DX2                !
 ! A69   A(48,20,49)           109.52           estimate D2E/DX2                !
 ! A70   A(18,21,50)           109.5            estimate D2E/DX2                !
 ! A71   A(18,21,51)           109.4418         estimate D2E/DX2                !
 ! A72   A(18,21,52)           109.4618         estimate D2E/DX2                !
 ! A73   A(50,21,51)           109.4418         estimate D2E/DX2                !
 ! A74   A(50,21,52)           109.4618         estimate D2E/DX2                !
 ! A75   A(51,21,52)           109.52           estimate D2E/DX2                !
 ! A76   A(17,22,23)           123.2443         estimate D2E/DX2                !
 ! A77   A(17,22,24)           113.5115         estimate D2E/DX2                !
 ! A78   A(23,22,24)           123.2443         estimate D2E/DX2                !
 ! A79   A(22,24,25)           118.38           estimate D2E/DX2                !
 ! A80   A(22,24,29)           123.2401         estimate D2E/DX2                !
 ! A81   A(25,24,29)           118.3799         estimate D2E/DX2                !
 ! A82   A(24,25,26)           109.4618         estimate D2E/DX2                !
 ! A83   A(24,25,27)           109.4618         estimate D2E/DX2                !
 ! A84   A(24,25,28)           109.52           estimate D2E/DX2                !
 ! A85   A(26,25,27)           109.5            estimate D2E/DX2                !
 ! A86   A(26,25,28)           109.4419         estimate D2E/DX2                !
 ! A87   A(27,25,28)           109.4418         estimate D2E/DX2                !
 ! A88   A(25,26,53)           109.5            estimate D2E/DX2                !
 ! A89   A(25,26,54)           109.4418         estimate D2E/DX2                !
 ! A90   A(25,26,55)           109.4618         estimate D2E/DX2                !
 ! A91   A(53,26,54)           109.4419         estimate D2E/DX2                !
 ! A92   A(53,26,55)           109.4619         estimate D2E/DX2                !
 ! A93   A(54,26,55)           109.5199         estimate D2E/DX2                !
 ! A94   A(25,27,56)           109.5            estimate D2E/DX2                !
 ! A95   A(25,27,57)           109.4419         estimate D2E/DX2                !
 ! A96   A(25,27,58)           109.4619         estimate D2E/DX2                !
 ! A97   A(56,27,57)           109.4418         estimate D2E/DX2                !
 ! A98   A(56,27,58)           109.4618         estimate D2E/DX2                !
 ! A99   A(57,27,58)           109.5199         estimate D2E/DX2                !
 ! A100  A(25,28,59)           109.5            estimate D2E/DX2                !
 ! A101  A(25,28,60)           109.4418         estimate D2E/DX2                !
 ! A102  A(25,28,61)           109.4618         estimate D2E/DX2                !
 ! A103  A(59,28,60)           109.4419         estimate D2E/DX2                !
 ! A104  A(59,28,61)           109.4618         estimate D2E/DX2                !
 ! A105  A(60,28,61)           109.52           estimate D2E/DX2                !
 ! A106  A(24,29,30)           123.2485         estimate D2E/DX2                !
 ! A107  A(24,29,62)           118.3758         estimate D2E/DX2                !
 ! A108  A(30,29,62)           118.3757         estimate D2E/DX2                !
 ! A109  A(16,30,29)           113.5084         estimate D2E/DX2                !
 ! A110  A(16,30,63)           108.4318         estimate D2E/DX2                !
 ! A111  A(16,30,64)           107.1144         estimate D2E/DX2                !
 ! A112  A(29,30,63)           108.4318         estimate D2E/DX2                !
 ! A113  A(29,30,64)           107.1144         estimate D2E/DX2                !
 ! A114  A(63,30,64)           112.3151         estimate D2E/DX2                !
 ! A115  A(5,31,32)            119.9972         estimate D2E/DX2                !
 ! A116  A(5,31,66)            120.0014         estimate D2E/DX2                !
 ! A117  A(32,31,66)           120.0014         estimate D2E/DX2                !
 ! A118  A(2,32,31)            119.9995         estimate D2E/DX2                !
 ! A119  A(2,32,65)            120.0002         estimate D2E/DX2                !
 ! A120  A(31,32,65)           120.0002         estimate D2E/DX2                !
 ! A121  A(31,66,67)           109.4712         estimate D2E/DX2                !
 ! A122  A(31,66,68)           109.4712         estimate D2E/DX2                !
 ! A123  A(31,66,69)           109.4712         estimate D2E/DX2                !
 ! A124  A(67,66,68)           109.4713         estimate D2E/DX2                !
 ! A125  A(67,66,69)           109.4712         estimate D2E/DX2                !
 ! A126  A(68,66,69)           109.4712         estimate D2E/DX2                !
 ! A127  L(12,13,14,1,-1)      180.0            estimate D2E/DX2                !
 ! A128  L(13,14,15,1,-1)      180.0            estimate D2E/DX2                !
 ! A129  L(12,13,14,1,-2)      180.0            estimate D2E/DX2                !
 ! A130  L(13,14,15,1,-2)      180.0            estimate D2E/DX2                !
 ! D1    D(33,1,2,3)             0.0            estimate D2E/DX2                !
 ! D2    D(33,1,2,32)         -179.9999         estimate D2E/DX2                !
 ! D3    D(34,1,2,3)           119.9636         estimate D2E/DX2                !
 ! D4    D(34,1,2,32)          -60.0363         estimate D2E/DX2                !
 ! D5    D(35,1,2,3)          -120.0004         estimate D2E/DX2                !
 ! D6    D(35,1,2,32)           59.9997         estimate D2E/DX2                !
 ! D7    D(1,2,3,4)           -179.9942         estimate D2E/DX2                !
 ! D8    D(1,2,3,36)             0.0059         estimate D2E/DX2                !
 ! D9    D(32,2,3,4)             0.0057         estimate D2E/DX2                !
 ! D10   D(32,2,3,36)         -179.9942         estimate D2E/DX2                !
 ! D11   D(1,2,32,31)          179.9988         estimate D2E/DX2                !
 ! D12   D(1,2,32,65)           -0.0013         estimate D2E/DX2                !
 ! D13   D(3,2,32,31)           -0.0011         estimate D2E/DX2                !
 ! D14   D(3,2,32,65)          179.9988         estimate D2E/DX2                !
 ! D15   D(2,3,4,5)             -0.0058         estimate D2E/DX2                !
 ! D16   D(2,3,4,70)           179.9942         estimate D2E/DX2                !
 ! D17   D(36,3,4,5)           179.9942         estimate D2E/DX2                !
 ! D18   D(36,3,4,70)           -0.0058         estimate D2E/DX2                !
 ! D19   D(3,4,5,6)           -179.9988         estimate D2E/DX2                !
 ! D20   D(3,4,5,31)             0.0012         estimate D2E/DX2                !
 ! D21   D(70,4,5,6)             0.0012         estimate D2E/DX2                !
 ! D22   D(70,4,5,31)         -179.9988         estimate D2E/DX2                !
 ! D23   D(4,5,6,7)            180.0            estimate D2E/DX2                !
 ! D24   D(4,5,6,12)             0.0            estimate D2E/DX2                !
 ! D25   D(31,5,6,7)             0.0            estimate D2E/DX2                !
 ! D26   D(31,5,6,12)         -180.0            estimate D2E/DX2                !
 ! D27   D(4,5,31,32)            0.0034         estimate D2E/DX2                !
 ! D28   D(4,5,31,66)         -179.9966         estimate D2E/DX2                !
 ! D29   D(6,5,31,32)         -179.9966         estimate D2E/DX2                !
 ! D30   D(6,5,31,66)            0.0034         estimate D2E/DX2                !
 ! D31   D(5,6,7,8)            179.9927         estimate D2E/DX2                !
 ! D32   D(5,6,7,37)            -0.0073         estimate D2E/DX2                !
 ! D33   D(12,6,7,8)            -0.0073         estimate D2E/DX2                !
 ! D34   D(12,6,7,37)          179.9927         estimate D2E/DX2                !
 ! D35   D(5,6,12,11)         -179.9963         estimate D2E/DX2                !
 ! D36   D(5,6,12,13)            0.0037         estimate D2E/DX2                !
 ! D37   D(7,6,12,11)            0.0037         estimate D2E/DX2                !
 ! D38   D(7,6,12,13)         -179.9963         estimate D2E/DX2                !
 ! D39   D(6,7,8,9)           -179.9938         estimate D2E/DX2                !
 ! D40   D(6,7,8,10)             0.0062         estimate D2E/DX2                !
 ! D41   D(37,7,8,9)             0.0063         estimate D2E/DX2                !
 ! D42   D(37,7,8,10)         -179.9938         estimate D2E/DX2                !
 ! D43   D(7,8,9,38)             0.0            estimate D2E/DX2                !
 ! D44   D(7,8,9,39)           119.9636         estimate D2E/DX2                !
 ! D45   D(7,8,9,40)          -120.0004         estimate D2E/DX2                !
 ! D46   D(10,8,9,38)         -180.0            estimate D2E/DX2                !
 ! D47   D(10,8,9,39)          -60.0364         estimate D2E/DX2                !
 ! D48   D(10,8,9,40)           59.9996         estimate D2E/DX2                !
 ! D49   D(7,8,10,11)           -0.0012         estimate D2E/DX2                !
 ! D50   D(7,8,10,41)          179.9988         estimate D2E/DX2                !
 ! D51   D(9,8,10,11)          179.9988         estimate D2E/DX2                !
 ! D52   D(9,8,10,41)           -0.0013         estimate D2E/DX2                !
 ! D53   D(8,10,11,12)          -0.0023         estimate D2E/DX2                !
 ! D54   D(8,10,11,42)         179.9978         estimate D2E/DX2                !
 ! D55   D(41,10,11,12)        179.9978         estimate D2E/DX2                !
 ! D56   D(41,10,11,42)         -0.0021         estimate D2E/DX2                !
 ! D57   D(10,11,12,6)           0.001          estimate D2E/DX2                !
 ! D58   D(10,11,12,13)       -179.999          estimate D2E/DX2                !
 ! D59   D(42,11,12,6)        -179.9991         estimate D2E/DX2                !
 ! D60   D(42,11,12,13)          0.0009         estimate D2E/DX2                !
 ! D61   D(6,12,15,16)           0.0            estimate D2E/DX2                !
 ! D62   D(6,12,15,43)         180.0            estimate D2E/DX2                !
 ! D63   D(11,12,15,16)       -180.0            estimate D2E/DX2                !
 ! D64   D(11,12,15,43)          0.0            estimate D2E/DX2                !
 ! D65   D(14,15,16,17)        180.0            estimate D2E/DX2                !
 ! D66   D(14,15,16,30)          0.0            estimate D2E/DX2                !
 ! D67   D(43,15,16,17)          0.0            estimate D2E/DX2                !
 ! D68   D(43,15,16,30)       -179.9999         estimate D2E/DX2                !
 ! D69   D(15,16,17,18)          0.0004         estimate D2E/DX2                !
 ! D70   D(15,16,17,22)       -179.9997         estimate D2E/DX2                !
 ! D71   D(30,16,17,18)       -179.9997         estimate D2E/DX2                !
 ! D72   D(30,16,17,22)          0.0003         estimate D2E/DX2                !
 ! D73   D(15,16,30,29)        179.9997         estimate D2E/DX2                !
 ! D74   D(15,16,30,63)         59.442          estimate D2E/DX2                !
 ! D75   D(15,16,30,64)        -61.9839         estimate D2E/DX2                !
 ! D76   D(17,16,30,29)         -0.0002         estimate D2E/DX2                !
 ! D77   D(17,16,30,63)       -120.5579         estimate D2E/DX2                !
 ! D78   D(17,16,30,64)        118.0162         estimate D2E/DX2                !
 ! D79   D(16,17,18,19)        180.0            estimate D2E/DX2                !
 ! D80   D(16,17,18,20)         59.9762         estimate D2E/DX2                !
 ! D81   D(16,17,18,21)        -60.0119         estimate D2E/DX2                !
 ! D82   D(22,17,18,19)          0.0            estimate D2E/DX2                !
 ! D83   D(22,17,18,20)       -120.0238         estimate D2E/DX2                !
 ! D84   D(22,17,18,21)        119.9881         estimate D2E/DX2                !
 ! D85   D(16,17,22,23)       -179.9982         estimate D2E/DX2                !
 ! D86   D(16,17,22,24)          0.0018         estimate D2E/DX2                !
 ! D87   D(18,17,22,23)          0.0018         estimate D2E/DX2                !
 ! D88   D(18,17,22,24)       -179.9982         estimate D2E/DX2                !
 ! D89   D(17,18,19,44)          0.0            estimate D2E/DX2                !
 ! D90   D(17,18,19,45)        119.9636         estimate D2E/DX2                !
 ! D91   D(17,18,19,46)       -120.0004         estimate D2E/DX2                !
 ! D92   D(20,18,19,44)        120.0004         estimate D2E/DX2                !
 ! D93   D(20,18,19,45)       -120.036          estimate D2E/DX2                !
 ! D94   D(20,18,19,46)          0.0            estimate D2E/DX2                !
 ! D95   D(21,18,19,44)       -120.0359         estimate D2E/DX2                !
 ! D96   D(21,18,19,45)         -0.0724         estimate D2E/DX2                !
 ! D97   D(21,18,19,46)        119.9636         estimate D2E/DX2                !
 ! D98   D(17,18,20,47)          0.0            estimate D2E/DX2                !
 ! D99   D(17,18,20,48)        119.9636         estimate D2E/DX2                !
 ! D100  D(17,18,20,49)       -120.0004         estimate D2E/DX2                !
 ! D101  D(19,18,20,47)       -120.0004         estimate D2E/DX2                !
 ! D102  D(19,18,20,48)         -0.0367         estimate D2E/DX2                !
 ! D103  D(19,18,20,49)        119.9992         estimate D2E/DX2                !
 ! D104  D(21,18,20,47)        120.036          estimate D2E/DX2                !
 ! D105  D(21,18,20,48)       -120.0004         estimate D2E/DX2                !
 ! D106  D(21,18,20,49)          0.0356         estimate D2E/DX2                !
 ! D107  D(17,18,21,50)          0.0001         estimate D2E/DX2                !
 ! D108  D(17,18,21,51)        119.9637         estimate D2E/DX2                !
 ! D109  D(17,18,21,52)       -120.0003         estimate D2E/DX2                !
 ! D110  D(19,18,21,50)        120.0004         estimate D2E/DX2                !
 ! D111  D(19,18,21,51)       -120.036          estimate D2E/DX2                !
 ! D112  D(19,18,21,52)          0.0            estimate D2E/DX2                !
 ! D113  D(20,18,21,50)       -120.0003         estimate D2E/DX2                !
 ! D114  D(20,18,21,51)         -0.0367         estimate D2E/DX2                !
 ! D115  D(20,18,21,52)        119.9993         estimate D2E/DX2                !
 ! D116  D(17,22,24,25)        179.9957         estimate D2E/DX2                !
 ! D117  D(17,22,24,29)         -0.0043         estimate D2E/DX2                !
 ! D118  D(23,22,24,25)         -0.0044         estimate D2E/DX2                !
 ! D119  D(23,22,24,29)        179.9956         estimate D2E/DX2                !
 ! D120  D(22,24,25,26)       -180.0            estimate D2E/DX2                !
 ! D121  D(22,24,25,27)         59.9762         estimate D2E/DX2                !
 ! D122  D(22,24,25,28)        -60.0118         estimate D2E/DX2                !
 ! D123  D(29,24,25,26)          0.0            estimate D2E/DX2                !
 ! D124  D(29,24,25,27)       -120.0237         estimate D2E/DX2                !
 ! D125  D(29,24,25,28)        119.9882         estimate D2E/DX2                !
 ! D126  D(22,24,29,30)          0.0048         estimate D2E/DX2                !
 ! D127  D(22,24,29,62)       -179.9953         estimate D2E/DX2                !
 ! D128  D(25,24,29,30)       -179.9952         estimate D2E/DX2                !
 ! D129  D(25,24,29,62)          0.0047         estimate D2E/DX2                !
 ! D130  D(24,25,26,53)          0.0            estimate D2E/DX2                !
 ! D131  D(24,25,26,54)        119.9637         estimate D2E/DX2                !
 ! D132  D(24,25,26,55)       -120.0004         estimate D2E/DX2                !
 ! D133  D(27,25,26,53)        120.0004         estimate D2E/DX2                !
 ! D134  D(27,25,26,54)       -120.0359         estimate D2E/DX2                !
 ! D135  D(27,25,26,55)          0.0            estimate D2E/DX2                !
 ! D136  D(28,25,26,53)       -120.036          estimate D2E/DX2                !
 ! D137  D(28,25,26,54)         -0.0723         estimate D2E/DX2                !
 ! D138  D(28,25,26,55)        119.9636         estimate D2E/DX2                !
 ! D139  D(24,25,27,56)          0.0            estimate D2E/DX2                !
 ! D140  D(24,25,27,57)        119.9637         estimate D2E/DX2                !
 ! D141  D(24,25,27,58)       -120.0004         estimate D2E/DX2                !
 ! D142  D(26,25,27,56)       -120.0004         estimate D2E/DX2                !
 ! D143  D(26,25,27,57)         -0.0368         estimate D2E/DX2                !
 ! D144  D(26,25,27,58)        119.9992         estimate D2E/DX2                !
 ! D145  D(28,25,27,56)        120.036          estimate D2E/DX2                !
 ! D146  D(28,25,27,57)       -120.0004         estimate D2E/DX2                !
 ! D147  D(28,25,27,58)          0.0356         estimate D2E/DX2                !
 ! D148  D(24,25,28,59)          0.0            estimate D2E/DX2                !
 ! D149  D(24,25,28,60)        119.9637         estimate D2E/DX2                !
 ! D150  D(24,25,28,61)       -120.0004         estimate D2E/DX2                !
 ! D151  D(26,25,28,59)        120.0003         estimate D2E/DX2                !
 ! D152  D(26,25,28,60)       -120.036          estimate D2E/DX2                !
 ! D153  D(26,25,28,61)          0.0            estimate D2E/DX2                !
 ! D154  D(27,25,28,59)       -120.0004         estimate D2E/DX2                !
 ! D155  D(27,25,28,60)         -0.0367         estimate D2E/DX2                !
 ! D156  D(27,25,28,61)        119.9993         estimate D2E/DX2                !
 ! D157  D(24,29,30,16)         -0.0023         estimate D2E/DX2                !
 ! D158  D(24,29,30,63)        120.5554         estimate D2E/DX2                !
 ! D159  D(24,29,30,64)       -118.0187         estimate D2E/DX2                !
 ! D160  D(62,29,30,16)        179.9977         estimate D2E/DX2                !
 ! D161  D(62,29,30,63)        -59.4446         estimate D2E/DX2                !
 ! D162  D(62,29,30,64)         61.9813         estimate D2E/DX2                !
 ! D163  D(5,31,32,2)           -0.0034         estimate D2E/DX2                !
 ! D164  D(5,31,32,65)         179.9967         estimate D2E/DX2                !
 ! D165  D(66,31,32,2)         179.9966         estimate D2E/DX2                !
 ! D166  D(66,31,32,65)         -0.0033         estimate D2E/DX2                !
 ! D167  D(5,31,66,67)         -60.0031         estimate D2E/DX2                !
 ! D168  D(5,31,66,68)          59.9969         estimate D2E/DX2                !
 ! D169  D(5,31,66,69)         179.9969         estimate D2E/DX2                !
 ! D170  D(32,31,66,67)        119.997          estimate D2E/DX2                !
 ! D171  D(32,31,66,68)       -120.003          estimate D2E/DX2                !
 ! D172  D(32,31,66,69)         -0.003          estimate D2E/DX2                !
 --------------------------------------------------------------------------------
 Trust Radius=3.00D-01 FncErr=1.00D-07 GrdErr=1.00D-06 EigMax=2.50D+02 EigMin=1.00D-04
 Number of steps in this run=    384 maximum allowed number of steps=    420.
 GradGradGradGradGradGradGradGradGradGradGradGradGradGradGradGradGradGrad

 Stoichiometry    C31H37NO
 Framework group  C1[X(C31H37NO)]
 Deg. of freedom   204
 Full point group                 C1      NOp   1
 Largest Abelian subgroup         C1      NOp   1
 Largest concise Abelian subgroup C1      NOp   1
                         Standard orientation:                         
 ---------------------------------------------------------------------
 Center     Atomic      Atomic             Coordinates (Angstroms)
 Number     Number       Type             X           Y           Z
 ---------------------------------------------------------------------
      1          6           0        0.359679    4.303237    0.000305
      2          6           0        1.258725    3.106271    0.000125
      3          6           0        0.711690    1.823211    0.000041
      4          6           0        1.549431    0.707934   -0.000004
      5          6           0        2.934107    0.875788   -0.000086
      6          6           0        3.737058   -0.193248   -0.000154
      7          6           0        5.068164   -0.024688   -0.000234
      8          7           0        5.929650   -1.090556   -0.000158
      9          6           0        7.377432   -0.835943   -0.000112
     10          6           0        5.483483   -2.386447   -0.000122
     11          6           0        4.174711   -2.682043   -0.000136
     12          6           0        3.136293   -1.581753   -0.000141
     13          6           0        1.843134   -1.809146   -0.000136
     14          6           0        0.649448   -2.019047   -0.000130
     15          6           0       -0.643712   -2.246440   -0.000124
     16          6           0       -1.502637   -1.221835   -0.000130
     17          6           0       -2.818277   -1.491807   -0.000124
     18          6           0       -3.250485   -2.925056   -0.000103
     19          6           0       -4.771819   -2.996287   -0.000100
     20          6           0       -2.709078   -3.618305    1.243203
     21          6           0       -2.710491   -3.619438   -1.243394
     22          6           0       -3.878527   -0.425674   -0.000138
     23          8           0       -5.061867   -0.668518   -0.000100
     24          6           0       -3.323828    0.971982   -0.000201
     25          6           0       -4.285540    2.119204   -0.000318
     26          6           0       -3.511067    3.430584   -0.000366
     27          6           0       -5.162210    2.046564    1.242944
     28          6           0       -5.162242    2.048185   -1.243653
     29          6           0       -2.008131    1.241889   -0.000156
     30          6           0       -0.947879    0.175757   -0.000144
     31          6           0        3.481140    2.158822   -0.000098
     32          6           0        2.643400    3.274125    0.000044
     33          1           0       -0.702331    3.970211    0.000349
     34          1           0        0.556388    4.914172    0.909608
     35          1           0        0.556453    4.914951   -0.908460
     36          1           0       -0.380318    1.690861    0.000009
     37          1           0        5.478771    0.995803   -0.000364
     38          1           0        7.561623    0.261710   -0.000149
     39          1           0        7.833053   -1.288009    0.909183
     40          1           0        7.833574   -1.288530   -0.908885
     41          1           0        6.217590   -3.205645   -0.000081
     42          1           0        3.853745   -3.734175   -0.000142
     43          1           0       -1.020419   -3.279925   -0.000115
     44          1           0       -5.192009   -1.965651   -0.000114
     45          1           0       -5.117360   -3.537244   -0.909350
     46          1           0       -5.117699   -3.537754    0.908718
     47          1           0       -2.123946   -2.890825    1.849141
     48          1           0       -3.557472   -4.007601    1.849376
     49          1           0       -2.050486   -4.462697    0.939843
     50          1           0       -2.125506   -2.892672   -1.850332
     51          1           0       -2.051602   -4.463457   -0.939640
     52          1           0       -3.559321   -4.009442   -1.848500
     53          1           0       -2.418759    3.216972   -0.000301
     54          1           0       -3.773994    4.016074   -0.909673
     55          1           0       -3.774339    4.016769    0.908395
     56          1           0       -4.874623    1.158418    1.848964
     57          1           0       -5.022706    2.969566    1.849059
     58          1           0       -6.229442    1.958667    0.939530
     59          1           0       -4.875101    1.160467   -1.850510
     60          1           0       -6.229358    1.959880   -0.939953
     61          1           0       -5.023022    2.971852   -1.848819
     62          1           0       -1.690512    2.295036   -0.000129
     63          1           0       -0.319092    0.304770   -0.909402
     64          1           0       -0.362636    0.295855    0.938918
     65          1           0        3.074766    4.286016    0.000090
     66          6           0        5.009954    2.344097   -0.000268
     67          1           0        5.424810    1.886280    0.873344
     68          1           0        5.424618    1.886257   -0.873959
     69          1           0        5.242662    3.388486   -0.000307
     70          1           0        1.129835   -0.276363    0.000025
 ---------------------------------------------------------------------
 Rotational constants (GHZ):           0.2139801           0.0795128           0.0595458
 Standard basis: 6-31G (6D, 7F)
 There are   371 symmetry adapted cartesian basis functions of A   symmetry.
 There are   371 symmetry adapted basis functions of A   symmetry.
   371 basis functions,   874 primitive gaussians,   371 cartesian basis functions
   119 alpha electrons      119 beta electrons
       nuclear repulsion energy      3414.0391068305 Hartrees.
 NAtoms=   70 NActive=   70 NUniq=   70 SFac= 1.00D+00 NAtFMM=   60 NAOKFM=T Big=T
 Integral buffers will be    131072 words long.
 Raffenetti 2 integral format.
 Two-electron integral symmetry is turned on.
 One-electron integrals computed using PRISM.
 NBasis=   371 RedAO= T EigKep=  6.54D-05  NBF=   371
 NBsUse=   371 1.00D-06 EigRej= -1.00D+00 NBFU=   371
 ExpMin= 1.61D-01 ExpMax= 5.48D+03 ExpMxC= 8.25D+02 IAcc=3 IRadAn=         5 AccDes= 0.00D+00
 Harris functional with IExCor=  402 and IRadAn=       5 diagonalized for initial guess.
 HarFok:  IExCor=  402 AccDes= 0.00D+00 IRadAn=         5 IDoV= 1 UseB2=F ITyADJ=14
 ICtDFT=  3500011 ScaDFX=  1.000000  1.000000  1.000000  1.000000
 FoFCou: FMM=F IPFlag=           0 FMFlag=      100000 FMFlg1=        2001
         NFxFlg=           0 DoJE=T BraDBF=F KetDBF=T FulRan=T
         wScrn=  0.000000 ICntrl=       500 IOpCl=  0 I1Cent=   200000004 NGrid=           0
         NMat0=    1 NMatS0=      1 NMatT0=    0 NMatD0=    1 NMtDS0=    0 NMtDT0=    0
 Petite list used in FoFCou.
 Requested convergence on RMS density matrix=1.00D-08 within 128 cycles.
 Requested convergence on MAX density matrix=1.00D-06.
 Requested convergence on             energy=1.00D-06.
 No special actions if energy rises.
 Integral accuracy reduced to 1.0D-05 until final iterations.
 EnCoef did     4 forward-backward iterations
 Initial convergence to 1.0D-05 achieved.  Increase integral accuracy.
 SCF Done:  E(RB3LYP) =  -1332.70166202     A.U. after   20 cycles
            NFock= 20  Conv=0.94D-08     -V/T= 2.0027

 **********************************************************************

            Population analysis using the SCF Density.

 **********************************************************************

 Orbital symmetries:
       Occupied  (A) (A) (A) (A) (A) (A) (A) (A) (A) (A) (A) (A)
                 (A) (A) (A) (A) (A) (A) (A) (A) (A) (A) (A) (A)
                 (A) (A) (A) (A) (A) (A) (A) (A) (A) (A) (A) (A)
                 (A) (A) (A) (A) (A) (A) (A) (A) (A) (A) (A) (A)
                 (A) (A) (A) (A) (A) (A) (A) (A) (A) (A) (A) (A)
                 (A) (A) (A) (A) (A) (A) (A) (A) (A) (A) (A) (A)
                 (A) (A) (A) (A) (A) (A) (A) (A) (A) (A) (A) (A)
                 (A) (A) (A) (A) (A) (A) (A) (A) (A) (A) (A) (A)
                 (A) (A) (A) (A) (A) (A) (A) (A) (A) (A) (A) (A)
                 (A) (A) (A) (A) (A) (A) (A) (A) (A) (A) (A)
       Virtual   (A) (A) (A) (A) (A) (A) (A) (A) (A) (A) (A) (A)
                 (A) (A) (A) (A) (A) (A) (A) (A) (A) (A) (A) (A)
                 (A) (A) (A) (A) (A) (A) (A) (A) (A) (A) (A) (A)
                 (A) (A) (A) (A) (A) (A) (A) (A) (A) (A) (A) (A)
                 (A) (A) (A) (A) (A) (A) (A) (A) (A) (A) (A) (A)
                 (A) (A) (A) (A) (A) (A) (A) (A) (A) (A) (A) (A)
                 (A) (A) (A) (A) (A) (A) (A) (A) (A) (A) (A) (A)
                 (A) (A) (A) (A) (A) (A) (A) (A) (A) (A) (A) (A)
                 (A) (A) (A) (A) (A) (A) (A) (A) (A) (A) (A) (A)
                 (A) (A) (A) (A) (A) (A) (A) (A) (A) (A) (A) (A)
                 (A) (A) (A) (A) (A) (A) (A) (A) (A) (A) (A) (A)
                 (A) (A) (A) (A) (A) (A) (A) (A) (A) (A) (A) (A)
                 (A) (A) (A) (A) (A) (A) (A) (A) (A) (A) (A) (A)
                 (A) (A) (A) (A) (A) (A) (A) (A) (A) (A) (A) (A)
                 (A) (A) (A) (A) (A) (A) (A) (A) (A) (A) (A) (A)
                 (A) (A) (A) (A) (A) (A) (A) (A) (A) (A) (A) (A)
                 (A) (A) (A) (A) (A) (A) (A) (A) (A) (A) (A) (A)
                 (A) (A) (A) (A) (A) (A) (A) (A) (A) (A) (A) (A)
                 (A) (A) (A) (A) (A) (A) (A) (A) (A) (A) (A) (A)
                 (A) (A) (A) (A) (A) (A) (A) (A) (A) (A) (A) (A)
                 (A) (A) (A) (A) (A) (A) (A) (A) (A) (A) (A) (A)
 The electronic state is 1-A.
 Alpha  occ. eigenvalues --  -19.11031 -14.41221 -10.25892 -10.25744 -10.24664
 Alpha  occ. eigenvalues --  -10.22663 -10.21543 -10.20958 -10.20088 -10.19829
 Alpha  occ. eigenvalues --  -10.19827 -10.18500 -10.18299 -10.18179 -10.18086
 Alpha  occ. eigenvalues --  -10.18030 -10.18013 -10.17905 -10.17751 -10.17709
 Alpha  occ. eigenvalues --  -10.17432 -10.17301 -10.16227 -10.15850 -10.15688
 Alpha  occ. eigenvalues --  -10.15654 -10.15556 -10.15268 -10.15070 -10.15067
 Alpha  occ. eigenvalues --  -10.14292 -10.14287 -10.07804  -1.06471  -1.01119
 Alpha  occ. eigenvalues --   -0.89912  -0.87387  -0.84849  -0.83983  -0.83591
 Alpha  occ. eigenvalues --   -0.80660  -0.79714  -0.79367  -0.77046  -0.76637
 Alpha  occ. eigenvalues --   -0.74968  -0.72965  -0.71339  -0.70875  -0.68794
 Alpha  occ. eigenvalues --   -0.68395  -0.66662  -0.66488  -0.66026  -0.64081
 Alpha  occ. eigenvalues --   -0.64016  -0.62208  -0.60754  -0.59797  -0.58310
 Alpha  occ. eigenvalues --   -0.56688  -0.55289  -0.53917  -0.52386  -0.52015
 Alpha  occ. eigenvalues --   -0.51223  -0.50302  -0.49601  -0.49512  -0.48834
 Alpha  occ. eigenvalues --   -0.47444  -0.46908  -0.46216  -0.46186  -0.45840
 Alpha  occ. eigenvalues --   -0.45191  -0.44154  -0.43459  -0.43181  -0.42860
 Alpha  occ. eigenvalues --   -0.42700  -0.42323  -0.42240  -0.41787  -0.41621
 Alpha  occ. eigenvalues --   -0.40967  -0.40505  -0.39932  -0.39068  -0.38939
 Alpha  occ. eigenvalues --   -0.38791  -0.37927  -0.37588  -0.36669  -0.36160
 Alpha  occ. eigenvalues --   -0.35626  -0.35285  -0.34966  -0.34218  -0.33487
 Alpha  occ. eigenvalues --   -0.33089  -0.32790  -0.32372  -0.31635  -0.31314
 Alpha  occ. eigenvalues --   -0.31254  -0.30493  -0.30330  -0.29795  -0.29317
 Alpha  occ. eigenvalues --   -0.28877  -0.27653  -0.26101  -0.25118  -0.23474
 Alpha  occ. eigenvalues --   -0.23199  -0.21864  -0.17361  -0.16501
 Alpha virt. eigenvalues --   -0.06908  -0.03521  -0.01795   0.00068   0.02915
 Alpha virt. eigenvalues --    0.03868   0.04409   0.04760   0.08070   0.08277
 Alpha virt. eigenvalues --    0.09734   0.09764   0.10353   0.10619   0.10718
 Alpha virt. eigenvalues --    0.11398   0.11797   0.12180   0.12587   0.12950
 Alpha virt. eigenvalues --    0.13025   0.13561   0.13582   0.13971   0.14436
 Alpha virt. eigenvalues --    0.14556   0.15677   0.15737   0.15920   0.16363
 Alpha virt. eigenvalues --    0.18089   0.18235   0.19010   0.19574   0.20332
 Alpha virt. eigenvalues --    0.20729   0.21007   0.21025   0.21237   0.21474
 Alpha virt. eigenvalues --    0.21676   0.22263   0.23281   0.23311   0.24154
 Alpha virt. eigenvalues --    0.24574   0.25414   0.25630   0.26289   0.26824
 Alpha virt. eigenvalues --    0.27292   0.28499   0.28766   0.28960   0.30767
 Alpha virt. eigenvalues --    0.31592   0.32096   0.32835   0.33574   0.33783
 Alpha virt. eigenvalues --    0.34008   0.34672   0.35391   0.36632   0.37906
 Alpha virt. eigenvalues --    0.38368   0.38834   0.39181   0.40491   0.41332
 Alpha virt. eigenvalues --    0.42207   0.42837   0.44369   0.45352   0.46654
 Alpha virt. eigenvalues --    0.48224   0.48499   0.48723   0.50026   0.50761
 Alpha virt. eigenvalues --    0.51007   0.52300   0.52316   0.52385   0.53217
 Alpha virt. eigenvalues --    0.54353   0.54920   0.54967   0.55188   0.55412
 Alpha virt. eigenvalues --    0.55472   0.55730   0.57356   0.57772   0.59104
 Alpha virt. eigenvalues --    0.59740   0.60101   0.60257   0.60941   0.61304
 Alpha virt. eigenvalues --    0.61638   0.61949   0.62703   0.62845   0.63514
 Alpha virt. eigenvalues --    0.64468   0.64601   0.64614   0.65072   0.65109
 Alpha virt. eigenvalues --    0.65715   0.66802   0.67030   0.67306   0.67691
 Alpha virt. eigenvalues --    0.68392   0.68420   0.68723   0.69385   0.69945
 Alpha virt. eigenvalues --    0.70720   0.71156   0.72345   0.73132   0.74083
 Alpha virt. eigenvalues --    0.74473   0.74830   0.74921   0.74968   0.75292
 Alpha virt. eigenvalues --    0.76252   0.76462   0.76851   0.77761   0.78181
 Alpha virt. eigenvalues --    0.78547   0.79283   0.79595   0.80214   0.80285
 Alpha virt. eigenvalues --    0.81227   0.81634   0.82674   0.83472   0.83586
 Alpha virt. eigenvalues --    0.84582   0.84765   0.85220   0.86003   0.87236
 Alpha virt. eigenvalues --    0.87531   0.87981   0.88421   0.88952   0.89069
 Alpha virt. eigenvalues --    0.89504   0.89994   0.90395   0.90517   0.91693
 Alpha virt. eigenvalues --    0.92023   0.92535   0.93013   0.93101   0.93281
 Alpha virt. eigenvalues --    0.93782   0.95355   0.95749   0.96013   0.97175
 Alpha virt. eigenvalues --    0.97314   0.97732   0.97946   0.98196   0.98340
 Alpha virt. eigenvalues --    0.98360   0.98945   0.99469   1.00617   1.00788
 Alpha virt. eigenvalues --    1.01217   1.02187   1.02387   1.03572   1.04374
 Alpha virt. eigenvalues --    1.04499   1.04566   1.05613   1.06984   1.07377
 Alpha virt. eigenvalues --    1.08617   1.09399   1.09791   1.11285   1.12268
 Alpha virt. eigenvalues --    1.13051   1.13980   1.14082   1.14175   1.15672
 Alpha virt. eigenvalues --    1.16365   1.16470   1.18407   1.19013   1.19688
 Alpha virt. eigenvalues --    1.20661   1.21919   1.22385   1.24032   1.25136
 Alpha virt. eigenvalues --    1.26325   1.28242   1.29485   1.29875   1.31536
 Alpha virt. eigenvalues --    1.32627   1.33647   1.34976   1.36120   1.39077
 Alpha virt. eigenvalues --    1.41258   1.41660   1.41838   1.43970   1.45051
 Alpha virt. eigenvalues --    1.45136   1.47040   1.48418   1.49712   1.51359
 Alpha virt. eigenvalues --    1.53268   1.54349   1.55180   1.57677   1.58730
 Alpha virt. eigenvalues --    1.61466   1.65459   1.67256   1.70181   1.73138
 Alpha virt. eigenvalues --    1.76282   1.79743   1.89038   1.90519   1.92150
 Alpha virt. eigenvalues --    1.99159   2.02279   2.05340   2.13703   2.20443
 Alpha virt. eigenvalues --    2.27563   2.35843
          Condensed to atoms (all electrons):
 Mulliken charges:
               1
     1  C   -0.491842
     2  C    0.096980
     3  C   -0.058377
     4  C   -0.052119
     5  C   -0.000772
     6  C    0.048574
     7  C    0.109059
     8  N   -0.657933
     9  C   -0.248342
    10  C    0.117740
    11  C   -0.102216
    12  C    0.315089
    13  C   -0.503909
    14  C   -0.114828
    15  C   -0.009147
    16  C    0.133915
    17  C   -0.021026
    18  C    0.005163
    19  C   -0.508774
    20  C   -0.407210
    21  C   -0.407095
    22  C    0.284306
    23  O   -0.468536
    24  C    0.087078
    25  C   -0.000239
    26  C   -0.399575
    27  C   -0.393210
    28  C   -0.393264
    29  C   -0.079191
    30  C   -0.494216
    31  C    0.172352
    32  C   -0.236586
    33  H    0.152069
    34  H    0.149813
    35  H    0.149838
    36  H   -0.013507
    37  H    0.027820
    38  H    0.164906
    39  H    0.172959
    40  H    0.172960
    41  H    0.161289
    42  H    0.155229
    43  H    0.159514
    44  H    0.286965
    45  H    0.088856
    46  H    0.088808
    47  H    0.140627
    48  H    0.130504
    49  H    0.119873
    50  H    0.140787
    51  H    0.119766
    52  H    0.130554
    53  H    0.114752
    54  H    0.133073
    55  H    0.133030
    56  H    0.145982
    57  H    0.116685
    58  H    0.139397
    59  H    0.146089
    60  H    0.139391
    61  H    0.116785
    62  H    0.171720
    63  H    0.211694
    64  H    0.210728
    65  H    0.116480
    66  C   -0.495048
    67  H    0.198470
    68  H    0.198487
    69  H    0.137829
    70  H    0.042978
 Sum of Mulliken charges =  -0.00000
 Mulliken charges with hydrogens summed into heavy atoms:
               1
     1  C   -0.040121
     2  C    0.096980
     3  C   -0.071884
     4  C   -0.009140
     5  C   -0.000772
     6  C    0.048574
     7  C    0.136879
     8  N   -0.657933
     9  C    0.262483
    10  C    0.279028
    11  C    0.053013
    12  C    0.315089
    13  C   -0.503909
    14  C   -0.114828
    15  C    0.150367
    16  C    0.133915
    17  C   -0.021026
    18  C    0.005163
    19  C   -0.044146
    20  C   -0.016206
    21  C   -0.015989
    22  C    0.284306
    23  O   -0.468536
    24  C    0.087078
    25  C   -0.000239
    26  C   -0.018720
    27  C    0.008854
    28  C    0.009001
    29  C    0.092529
    30  C   -0.071794
    31  C    0.172352
    32  C   -0.120107
    66  C    0.039738
 Electronic spatial extent (au):  <R**2>=          17689.9157
 Charge=             -0.0000 electrons
 Dipole moment (field-independent basis, Debye):
    X=             13.3789    Y=              2.7212    Z=              0.0143  Tot=             13.6528
 Quadrupole moment (field-independent basis, Debye-Ang):
   XX=           -168.2860   YY=           -195.5784   ZZ=           -204.6300
   XY=            -16.3743   XZ=             -0.0237   YZ=             -0.0009
 Traceless Quadrupole moment (field-independent basis, Debye-Ang):
   XX=             21.2121   YY=             -6.0803   ZZ=            -15.1319
   XY=            -16.3743   XZ=             -0.0237   YZ=             -0.0009
 Octapole moment (field-independent basis, Debye-Ang**2):
  XXX=            650.5437  YYY=             23.3424  ZZZ=              0.0607  XYY=             76.2466
  XXY=             21.4311  XXZ=             -0.0490  XZZ=             -6.1561  YZZ=              4.7098
  YYZ=             -0.0321  XYZ=             -0.0030
 Hexadecapole moment (field-independent basis, Debye-Ang**3):
 XXXX=         -14938.5744 YYYY=          -6590.9143 ZZZZ=           -600.8532 XXXY=           -678.4020
 XXXZ=              0.2376 YYYX=           -177.2983 YYYZ=             -0.0165 ZZZX=              0.0124
 ZZZY=              0.0259 XXYY=          -3858.6905 XXZZ=          -3018.5791 YYZZ=          -1246.6858
 XXYZ=             -0.0100 YYXZ=              0.1175 ZZXY=              6.2489
 N-N= 3.414039106831D+03 E-N=-9.923253796742D+03  KE= 1.329163852515D+03
 Calling FoFJK, ICntrl=      2127 FMM=T ISym2X=0 I1Cent= 0 IOpClX= 0 NMat=1 NMatS=1 NMatT=0.
 ***** Axes restored to original set *****
 -------------------------------------------------------------------
 Center     Atomic                   Forces (Hartrees/Bohr)
 Number     Number              X              Y              Z
 -------------------------------------------------------------------
      1        6           0.005539807    0.006594852   -0.001808498
      2        6           0.002657594    0.003293309   -0.000937304
      3        6          -0.025552066    0.031794279   -0.009053673
      4        6          -0.002195707    0.042945663   -0.011771438
      5        6           0.059213524    0.062796053   -0.016660418
      6        6          -0.013442658   -0.107351377    0.028576347
      7        6          -0.040755120   -0.047985146    0.012717076
      8        7          -0.018334704    0.004137542   -0.001104030
      9        6          -0.008804054   -0.000929983    0.000178380
     10        6          -0.014271518   -0.015954974    0.004228187
     11        6           0.050073634    0.010935950   -0.002838175
     12        6          -0.089522051    0.001337623   -0.000500412
     13        6          -0.034654695   -0.032924061    0.008710379
     14        6           0.020382263   -0.048858598    0.013115485
     15        6          -0.034479517   -0.066862477    0.017789260
     16        6           0.045240724    0.067158909   -0.016527668
     17        6           0.058463567    0.021082295   -0.005468709
     18        6           0.015907041   -0.002656760    0.000702397
     19        6           0.027366494   -0.048629625    0.012956542
     20        6          -0.004312715   -0.019877835   -0.029292028
     21        6          -0.004661470   -0.002641141    0.035185248
     22        6          -0.125045663    0.012833888   -0.003471635
     23        8           0.079646530    0.081692159   -0.021627759
     24        6          -0.007633333   -0.000587498    0.000207046
     25        6           0.003098237    0.008059107   -0.002250635
     26        6          -0.000618240    0.031491392   -0.008413665
     27        6           0.014860561   -0.011529739   -0.024544512
     28        6           0.014823735    0.001998446    0.027077223
     29        6           0.013378989   -0.037106909    0.011322034
     30        6           0.057944790   -0.042280630    0.009644234
     31        6          -0.017862828    0.029685850   -0.007945118
     32        6          -0.011821774    0.002939239   -0.000781729
     33        1          -0.013487387    0.012499503   -0.003330201
     34        1           0.005960416    0.001697171    0.010166626
     35        1           0.006002825   -0.003616816   -0.009630895
     36        1          -0.068289241    0.041715496   -0.011485769
     37        1          -0.010013901   -0.099176179    0.026400091
     38        1           0.001075521   -0.014282066    0.003826417
     39        1           0.001392367    0.008222787    0.008039342
     40        1           0.001457790    0.003158597   -0.011055248
     41        1           0.001977896    0.012578469   -0.003345901
     42        1          -0.000551360    0.011643837   -0.003103674
     43        1          -0.019622288    0.020007120   -0.005377710
     44        1           0.008080901   -0.056941625    0.015147222
     45        1           0.003255886   -0.001391310   -0.012544849
     46        1           0.003175495    0.005023280    0.011544742
     47        1           0.006250215   -0.015756673    0.002767672
     48        1          -0.014757038    0.002258041    0.001955572
     49        1           0.007783404    0.000302133   -0.015595260
     50        1           0.006253107   -0.014996304    0.005430467
     51        1           0.007737639    0.007997372    0.013413655
     52        1          -0.014791910    0.001009788   -0.002876269
     53        1           0.035792774    0.036116497   -0.009576967
     54        1          -0.008709472   -0.003494475   -0.012729533
     55        1          -0.008729304    0.003248279    0.012721790
     56        1           0.010421016    0.011866098   -0.002497658
     57        1           0.006537762   -0.012942303    0.004056882
     58        1          -0.011344647   -0.003826152   -0.012548305
     59        1           0.010376193    0.011546122   -0.003693520
     60        1          -0.011366932    0.002942276    0.012756021
     61        1           0.006526280   -0.013288784    0.002949421
     62        1          -0.002420060   -0.034989096    0.009293267
     63        1           0.014508266   -0.016863234   -0.008891331
     64        1           0.009201532   -0.007806522    0.016220983
     65        1           0.002685581   -0.007549323    0.002038493
     66        6           0.048303822    0.081868689   -0.021729007
     67        1          -0.008913465    0.016970708   -0.028881002
     68        1          -0.008984197    0.029090731    0.016587143
     69        1          -0.002330347    0.018575624   -0.004951158
     70        1          -0.015074514    0.031982439   -0.008883979
 -------------------------------------------------------------------
 Cartesian Forces:  Max     0.125045663 RMS     0.027106536

 GradGradGradGradGradGradGradGradGradGradGradGradGradGradGradGradGradGrad
 Berny optimization.
 FormGI is forming the generalized inverse of G from B-inverse, IUseBI=4.
 Internal  Forces:  Max     1.211555777 RMS     0.123010800
 Search for a local minimum.
 Step number   1 out of a maximum of  384
 All quantities printed in internal units (Hartrees-Bohrs-Radians)
 Mixed Optimization -- RFO/linear search
 Second derivative matrix not updated -- first step.
 ITU=  0
     Eigenvalues ---    0.00230   0.00237   0.00462   0.00462   0.00462
     Eigenvalues ---    0.00462   0.00462   0.00462   0.00498   0.00718
     Eigenvalues ---    0.00718   0.00766   0.00806   0.00806   0.00806
     Eigenvalues ---    0.00956   0.01240   0.01260   0.01280   0.01388
     Eigenvalues ---    0.01482   0.01604   0.01623   0.01687   0.01691
     Eigenvalues ---    0.01966   0.02021   0.02025   0.02157   0.02157
     Eigenvalues ---    0.02157   0.02157   0.02157   0.02158   0.02233
     Eigenvalues ---    0.02273   0.02390   0.02496   0.02532   0.02737
     Eigenvalues ---    0.02922   0.02922   0.03240   0.03705   0.04576
     Eigenvalues ---    0.04732   0.04927   0.04927   0.05493   0.05493
     Eigenvalues ---    0.05494   0.05494   0.05865   0.05865   0.05865
     Eigenvalues ---    0.05865   0.05865   0.05865   0.05869   0.05869
     Eigenvalues ---    0.05869   0.05869   0.05869   0.05869   0.06905
     Eigenvalues ---    0.07243   0.07243   0.07535   0.07539   0.07557
     Eigenvalues ---    0.07561   0.09954   0.11112   0.15124   0.15124
     Eigenvalues ---    0.15138   0.15138   0.16000   0.16000   0.16000
     Eigenvalues ---    0.16000   0.16000   0.16000   0.16000   0.16000
     Eigenvalues ---    0.16000   0.16000   0.16000   0.16000   0.16000
     Eigenvalues ---    0.16000   0.16000   0.16000   0.16000   0.16000
     Eigenvalues ---    0.16000   0.16000   0.16000   0.16000   0.16000
     Eigenvalues ---    0.16000   0.16000   0.16000   0.16000   0.16000
     Eigenvalues ---    0.16000   0.16000   0.16000   0.16000   0.16000
     Eigenvalues ---    0.16000   0.16000   0.22000   0.22329   0.22375
     Eigenvalues ---    0.22621   0.23478   0.23492   0.24520   0.24582
     Eigenvalues ---    0.24610   0.25000   0.25000   0.25000   0.25000
     Eigenvalues ---    0.25000   0.25000   0.25000   0.25000   0.25000
     Eigenvalues ---    0.25000   0.25000   0.28519   0.30079   0.30079
     Eigenvalues ---    0.30079   0.30079   0.30079   0.30079   0.30436
     Eigenvalues ---    0.30719   0.30748   0.31418   0.31994   0.32004
     Eigenvalues ---    0.32284   0.32284   0.32284   0.32284   0.32284
     Eigenvalues ---    0.32284   0.32284   0.32284   0.32284   0.32284
     Eigenvalues ---    0.32284   0.32284   0.32284   0.32284   0.32284
     Eigenvalues ---    0.32284   0.32284   0.32284   0.32284   0.32284
     Eigenvalues ---    0.32284   0.32284   0.32284   0.32284   0.32285
     Eigenvalues ---    0.32285   0.32694   0.32694   0.32694   0.33682
     Eigenvalues ---    0.33682   0.33682   0.33682   0.33682   0.33682
     Eigenvalues ---    0.33682   0.35740   0.37230   0.37230   0.37230
     Eigenvalues ---    0.37230   0.42262   0.42575   0.46480   0.46488
     Eigenvalues ---    0.46491   0.46494   0.48531   0.49364   0.53074
     Eigenvalues ---    0.53774   0.56521   0.56811   0.57883   0.57883
     Eigenvalues ---    0.63708   0.63708   0.99017   1.00904
 RFO step:  Lambda=-2.29333932D+00 EMin= 2.30000000D-03
 Linear search not attempted -- first point.
 Maximum step size (   0.300) exceeded in Quadratic search.
    -- Step size scaled by   0.311
 Iteration  1 RMS(Cart)=  0.15200130 RMS(Int)=  0.01290001
 Iteration  2 RMS(Cart)=  0.15228516 RMS(Int)=  0.01031877
 Iteration  3 RMS(Cart)=  0.16233216 RMS(Int)=  0.00767721
 Iteration  4 RMS(Cart)=  0.19540628 RMS(Int)=  0.00485553
 Iteration  5 RMS(Cart)=  0.20762558 RMS(Int)=  0.00213331
 Iteration  6 RMS(Cart)=  0.00733379 RMS(Int)=  0.00001167
 Iteration  7 RMS(Cart)=  0.00000155 RMS(Int)=  0.00001166
 Iteration  8 RMS(Cart)=  0.00000000 RMS(Int)=  0.00001166
 Iteration  1 RMS(Cart)=  0.16055687 RMS(Int)=  0.01120966
 Iteration  2 RMS(Cart)=  0.16249807 RMS(Int)=  0.00850891
 Iteration  3 RMS(Cart)=  0.18077996 RMS(Int)=  0.00573288
 Iteration  4 RMS(Cart)=  0.23318896 RMS(Int)=  0.00319833
 Iteration  5 RMS(Cart)=  0.04740900 RMS(Int)=  0.00011619
 Iteration  6 RMS(Cart)=  0.00046519 RMS(Int)=  0.00000943
 Iteration  7 RMS(Cart)=  0.00000003 RMS(Int)=  0.00000943
 ITry= 2 IFail=0 DXMaxC= 3.45D+00 DCOld= 3.84D+00 DXMaxT= 3.00D-01 DXLimC= 3.00D+00 Rises=F
 Iteration  1 RMS(Cart)=  0.16963116 RMS(Int)=  0.00951988
 Iteration  2 RMS(Cart)=  0.17427855 RMS(Int)=  0.00671724
 Iteration  3 RMS(Cart)=  0.20577295 RMS(Int)=  0.00395090
 Iteration  4 RMS(Cart)=  0.14998250 RMS(Int)=  0.00110198
 Iteration  5 RMS(Cart)=  0.00378923 RMS(Int)=  0.00000745
 Iteration  6 RMS(Cart)=  0.00000062 RMS(Int)=  0.00000745
 ITry= 3 IFail=0 DXMaxC= 3.07D+00 DCOld= 3.45D+00 DXMaxT= 3.00D-01 DXLimC= 3.00D+00 Rises=F
 Iteration  1 RMS(Cart)=  0.17879976 RMS(Int)=  0.00784457
 Iteration  2 RMS(Cart)=  0.18751166 RMS(Int)=  0.00500225
 Iteration  3 RMS(Cart)=  0.22450978 RMS(Int)=  0.00264679
 Iteration  4 RMS(Cart)=  0.02366094 RMS(Int)=  0.00002821
 Iteration  5 RMS(Cart)=  0.00013081 RMS(Int)=  0.00000570
 Iteration  6 RMS(Cart)=  0.00000000 RMS(Int)=  0.00000570
 ITry= 4 IFail=0 DXMaxC= 2.68D+00 DCOld= 3.07D+00 DXMaxT= 3.00D-01 DXLimC= 3.00D+00 Rises=F
 Variable       Old X    -DE/DX   Delta X   Delta X   Delta X     New X
                                 (Linear)    (Quad)   (Total)
    R1        2.82892   0.01656   0.00000   0.00197   0.00138   2.83030
    R2        2.10327  -0.01682   0.00000  -0.00200  -0.00140   2.10187
    R3        2.10326  -0.00994   0.00000  -0.00118  -0.00083   2.10244
    R4        2.10326  -0.00995   0.00000  -0.00118  -0.00083   2.10244
    R5        2.63580  -0.06456   0.00000  -0.00747  -0.00523   2.63057
    R6        2.63581  -0.10389   0.00000  -0.01187  -0.00832   2.62749
    R7        2.63592   0.04670   0.00000   0.00524   0.00368   2.63959
    R8        2.07870  -0.07333   0.00000  -0.00868  -0.00608   2.07262
    R9        2.63581  -0.02243   0.00000  -0.00239  -0.00166   2.63416
   R10        2.02201  -0.03643   0.00000  -0.00426  -0.00298   2.01903
   R11        2.52656   0.30476   0.00000   0.03304   0.02313   2.54969
   R12        2.63576   0.24516   0.00000   0.02785   0.01950   2.65526
   R13        2.53551   0.11945   0.00000   0.01316   0.00923   2.54474
   R14        2.85896   0.33075   0.00000   0.03978   0.02787   2.88683
   R15        2.58984  -0.05233   0.00000  -0.00586  -0.00411   2.58574
   R16        2.07870  -0.09193   0.00000  -0.01088  -0.00762   2.07108
   R17        2.77790   0.00407   0.00000   0.00048   0.00033   2.77823
   R18        2.58996  -0.13695   0.00000  -0.01543  -0.01082   2.57914
   R19        2.10327  -0.01477   0.00000  -0.00176  -0.00123   2.10203
   R20        2.10327  -0.01102   0.00000  -0.00131  -0.00092   2.10235
   R21        2.10326  -0.01103   0.00000  -0.00131  -0.00092   2.10235
   R22        2.53552  -0.06671   0.00000  -0.00744  -0.00522   2.53030
   R23        2.07870  -0.01094   0.00000  -0.00130  -0.00091   2.07779
   R24        2.85902   0.01734   0.00000   0.00210   0.00147   2.86049
   R25        2.07870  -0.01172   0.00000  -0.00139  -0.00097   2.07773
   R26        2.48121   0.21292   0.00000   0.02262   0.01584   2.49705
   R27        2.29035   0.24077   0.00000   0.02283   0.01598   2.30633
   R28        2.48121   0.21149   0.00000   0.02247   0.01573   2.49694
   R29        2.52656   0.13128   0.00000   0.01423   0.00996   2.53653
   R30        2.07870  -0.02607   0.00000  -0.00309  -0.00216   2.07654
   R31        2.53800   0.11528   0.00000   0.01264   0.00885   2.54685
   R32        2.84152  -0.09877   0.00000  -0.01174  -0.00822   2.83330
   R33        2.82892   0.15854   0.00000   0.01884   0.01319   2.84211
   R34        2.84137   0.06183   0.00000   0.00744   0.00521   2.84657
   R35        2.87805   0.04776   0.00000   0.00573   0.00401   2.88207
   R36        2.87805   0.05023   0.00000   0.00603   0.00422   2.88227
   R37        2.87805   0.05021   0.00000   0.00603   0.00422   2.88227
   R38        2.10327  -0.05122   0.00000  -0.00610  -0.00427   2.09900
   R39        2.10326  -0.01013   0.00000  -0.00121  -0.00084   2.10242
   R40        2.10326  -0.01010   0.00000  -0.00120  -0.00084   2.10242
   R41        2.10326  -0.01299   0.00000  -0.00155  -0.00108   2.10218
   R42        2.10326  -0.01315   0.00000  -0.00157  -0.00110   2.10217
   R43        2.10327  -0.01198   0.00000  -0.00143  -0.00100   2.10227
   R44        2.10326  -0.01295   0.00000  -0.00154  -0.00108   2.10219
   R45        2.10327  -0.01196   0.00000  -0.00142  -0.00100   2.10227
   R46        2.10327  -0.01321   0.00000  -0.00157  -0.00110   2.10217
   R47        2.28279   0.06008   0.00000   0.00566   0.00397   2.28676
   R48        2.84159  -0.02891   0.00000  -0.00348  -0.00243   2.83916
   R49        2.82892   0.08901   0.00000   0.01058   0.00740   2.83632
   R50        2.53809  -0.01018   0.00000  -0.00120  -0.00084   2.53725
   R51        2.87805   0.05150   0.00000   0.00618   0.00433   2.88238
   R52        2.87805   0.04361   0.00000   0.00523   0.00366   2.88172
   R53        2.87805   0.04359   0.00000   0.00523   0.00366   2.88172
   R54        2.10326  -0.04201   0.00000  -0.00500  -0.00350   2.09976
   R55        2.10326  -0.01293   0.00000  -0.00154  -0.00108   2.10219
   R56        2.10327  -0.01291   0.00000  -0.00154  -0.00108   2.10219
   R57        2.10327  -0.01275   0.00000  -0.00152  -0.00106   2.10220
   R58        2.10327  -0.01234   0.00000  -0.00147  -0.00103   2.10224
   R59        2.10327  -0.01442   0.00000  -0.00172  -0.00120   2.10206
   R60        2.10326  -0.01272   0.00000  -0.00151  -0.00106   2.10221
   R61        2.10326  -0.01441   0.00000  -0.00171  -0.00120   2.10206
   R62        2.10327  -0.01238   0.00000  -0.00147  -0.00103   2.10223
   R63        2.84137   0.01294   0.00000   0.00147   0.00103   2.84239
   R64        2.07870  -0.03408   0.00000  -0.00403  -0.00282   2.07588
   R65        2.10326  -0.02045   0.00000  -0.00243  -0.00170   2.10156
   R66        2.10327  -0.01768   0.00000  -0.00210  -0.00147   2.10179
   R67        2.63595  -0.03166   0.00000  -0.00354  -0.00249   2.63347
   R68        2.91018  -0.00816   0.00000  -0.00098  -0.00069   2.90949
   R69        2.07870  -0.00825   0.00000  -0.00098  -0.00068   2.07801
   R70        2.02201   0.01261   0.00000   0.00147   0.00103   2.02304
   R71        2.02201   0.01261   0.00000   0.00147   0.00103   2.02304
   R72        2.02201   0.01929   0.00000   0.00225   0.00158   2.02358
    A1        1.91113   0.00963   0.00000   0.00122   0.00086   1.91199
    A2        1.91012   0.00636   0.00000   0.00081   0.00056   1.91069
    A3        1.91047   0.00632   0.00000   0.00080   0.00056   1.91103
    A4        1.91012  -0.00750   0.00000  -0.00095  -0.00067   1.90945
    A5        1.91047  -0.00752   0.00000  -0.00095  -0.00067   1.90980
    A6        1.91148  -0.00728   0.00000  -0.00093  -0.00065   1.91084
    A7        2.09437   0.03239   0.00000   0.00416   0.00292   2.09729
    A8        2.09437   0.00683   0.00000   0.00103   0.00073   2.09510
    A9        2.09445  -0.03922   0.00000  -0.00519  -0.00365   2.09079
   A10        2.09434   0.08181   0.00000   0.00987   0.00691   2.10125
   A11        2.09442  -0.07628   0.00000  -0.00942  -0.00660   2.08782
   A12        2.09442  -0.00553   0.00000  -0.00044  -0.00031   2.09411
   A13        2.09440   0.02138   0.00000   0.00274   0.00194   2.09634
   A14        2.09439  -0.00948   0.00000  -0.00122  -0.00086   2.09353
   A15        2.09439  -0.01190   0.00000  -0.00153  -0.00108   2.09331
   A16        2.09437   0.14727   0.00000   0.01787   0.01250   2.10686
   A17        2.09445  -0.15150   0.00000  -0.01822  -0.01274   2.08171
   A18        2.09437   0.00423   0.00000   0.00035   0.00024   2.09461
   A19        2.08904  -0.33271   0.00000  -0.04091  -0.02866   2.06038
   A20        2.08904   0.54084   0.00000   0.06603   0.04620   2.13524
   A21        2.10511  -0.20813   0.00000  -0.02512  -0.01755   2.08756
   A22        2.12459   0.18428   0.00000   0.02290   0.01604   2.14063
   A23        2.07930  -0.04358   0.00000  -0.00529  -0.00371   2.07559
   A24        2.07930  -0.14070   0.00000  -0.01761  -0.01234   2.06697
   A25        2.07646   0.01336   0.00000   0.00181   0.00128   2.07774
   A26        2.13026  -0.01866   0.00000  -0.00264  -0.00187   2.12839
   A27        2.07646   0.00530   0.00000   0.00082   0.00059   2.07705
   A28        1.91114  -0.00006   0.00000  -0.00001  -0.00001   1.91113
   A29        1.91012   0.00444   0.00000   0.00056   0.00040   1.91052
   A30        1.91047   0.00439   0.00000   0.00056   0.00039   1.91086
   A31        1.91012  -0.00267   0.00000  -0.00034  -0.00024   1.90988
   A32        1.91047  -0.00268   0.00000  -0.00034  -0.00024   1.91023
   A33        1.91148  -0.00342   0.00000  -0.00043  -0.00030   1.91118
   A34        2.12451  -0.03295   0.00000  -0.00460  -0.00325   2.12126
   A35        2.07934   0.00887   0.00000   0.00133   0.00095   2.08029
   A36        2.07934   0.02408   0.00000   0.00326   0.00230   2.08164
   A37        2.10514   0.16525   0.00000   0.02022   0.01414   2.11928
   A38        2.08902  -0.07964   0.00000  -0.00973  -0.00680   2.08222
   A39        2.08902  -0.08561   0.00000  -0.01049  -0.00734   2.08169
   A40        1.97677  -0.08978   0.00000  -0.01077  -0.00751   1.96926
   A41        2.15321   0.82371   0.00000   0.10073   0.07050   2.22371
   A42        2.15321  -0.73392   0.00000  -0.08996  -0.06298   2.09022
   A43        2.09439   0.55875   0.00000   0.06922   0.04845   2.14285
   A44        2.09439  -0.29142   0.00000  -0.03614  -0.02530   2.06910
   A45        2.09440  -0.26733   0.00000  -0.03308  -0.02316   2.07124
   A46        2.06607  -0.13230   0.00000  -0.01626  -0.01138   2.05469
   A47        2.06607   0.13890   0.00000   0.01694   0.01186   2.07793
   A48        2.15105  -0.00660   0.00000  -0.00069  -0.00048   2.15057
   A49        2.06607  -0.12352   0.00000  -0.01520  -0.01064   2.05543
   A50        2.15104  -0.04968   0.00000  -0.00592  -0.00414   2.14689
   A51        2.06608   0.17320   0.00000   0.02112   0.01478   2.08086
   A52        1.91047   0.09623   0.00000   0.01242   0.00869   1.91916
   A53        1.91047  -0.03089   0.00000  -0.00392  -0.00274   1.90773
   A54        1.91148  -0.03115   0.00000  -0.00395  -0.00276   1.90872
   A55        1.91114  -0.04005   0.00000  -0.00512  -0.00358   1.90756
   A56        1.91012  -0.03974   0.00000  -0.00508  -0.00355   1.90657
   A57        1.91012   0.04555   0.00000   0.00565   0.00395   1.91407
   A58        1.91114   0.04515   0.00000   0.00575   0.00402   1.91516
   A59        1.91012   0.00060   0.00000   0.00007   0.00005   1.91017
[...]
     16          6           0       -1.494020   -1.268597   -0.060556
     17          6           0       -2.840829   -1.576451    0.047594
     18          6           0       -3.406526   -2.979782    0.414813
     19          6           0       -4.850542   -2.889837    0.996481
     20          6           0       -2.579066   -3.649556    1.553694
     21          6           0       -3.452522   -3.892069   -0.842262
     22          6           0       -3.800404   -0.512451   -0.341436
     23          8           0       -4.923422   -0.810733   -0.842986
     24          6           0       -3.426145    0.923875   -0.162056
     25          6           0       -4.535200    1.995000   -0.136598
     26          6           0       -3.972152    3.378101    0.268246
     27          6           0       -5.630238    1.604870    0.894054
     28          6           0       -5.176144    2.127244   -1.547759
     29          6           0       -2.112986    1.211842   -0.071650
     30          6           0       -1.044109    0.176297   -0.163108
     31          6           0        2.553034    1.686437   -0.916469
     32          6           0        1.792897    2.850347   -0.726754
     33          1           0        1.154339    5.328384    1.519423
     34          1           0        0.795697    5.313592   -0.216398
     35          1           0       -0.246652    4.442275    0.911759
     36          1           0        2.228527    3.344508    2.605346
     37          1           0        5.878523    0.985137    0.315425
     38          1           0        7.977190    0.008029    0.738603
     39          1           0        8.236884   -1.727540    0.497634
     40          1           0        8.129137   -0.643861   -0.911455
     41          1           0        6.480063   -3.129245   -0.211675
     42          1           0        4.046003   -3.532392   -0.380887
     43          1           0       -0.676997   -3.278477   -0.293209
     44          1           0       -4.886372   -2.197515    1.847036
     45          1           0       -5.569784   -2.554875    0.252436
     46          1           0       -5.142922   -3.882368    1.360199
     47          1           0       -1.551291   -3.892183    1.286971
     48          1           0       -2.547854   -2.994956    2.432756
     49          1           0       -3.073437   -4.583581    1.846455
     50          1           0       -2.458062   -4.044881   -1.276526
     51          1           0       -3.864857   -4.876046   -0.582817
     52          1           0       -4.093349   -3.438481   -1.604881
     53          1           0       -3.486403    3.345621    1.251203
     54          1           0       -3.249399    3.756320   -0.464682
     55          1           0       -4.794320    4.100806    0.322058
     56          1           0       -5.204016    1.519717    1.901577
     57          1           0       -6.407653    2.378563    0.919422
     58          1           0       -6.096481    0.654472    0.627285
     59          1           0       -4.421935    2.426224   -2.286327
     60          1           0       -5.614176    1.177559   -1.857961
     61          1           0       -5.959466    2.896309   -1.530061
     62          1           0       -1.767736    2.235123    0.035542
     63          1           0       -0.487660    0.317663   -1.103823
     64          1           0       -0.287845    0.357619    0.615823
     65          1           0        1.304006    3.297067   -1.589199
     66          6           0        2.680488    1.084922   -2.298850
     67          1           0        3.730597    0.934517   -2.576690
     68          1           0        2.192306    0.104760   -2.352967
     69          1           0        2.221470    1.733659   -3.050843
     70          1           0        3.576665    1.288996    2.314991
 ---------------------------------------------------------------------
 Rotational constants (GHZ):           0.1929978           0.0728346           0.0568723

 **********************************************************************

            Population analysis using the SCF Density.

 **********************************************************************

 Orbital symmetries:
       Occupied  (A) (A) (A) (A) (A) (A) (A) (A) (A) (A) (A) (A)
                 (A) (A) (A) (A) (A) (A) (A) (A) (A) (A) (A) (A)
                 (A) (A) (A) (A) (A) (A) (A) (A) (A) (A) (A) (A)
                 (A) (A) (A) (A) (A) (A) (A) (A) (A) (A) (A) (A)
                 (A) (A) (A) (A) (A) (A) (A) (A) (A) (A) (A) (A)
                 (A) (A) (A) (A) (A) (A) (A) (A) (A) (A) (A) (A)
                 (A) (A) (A) (A) (A) (A) (A) (A) (A) (A) (A) (A)
                 (A) (A) (A) (A) (A) (A) (A) (A) (A) (A) (A) (A)
                 (A) (A) (A) (A) (A) (A) (A) (A) (A) (A) (A) (A)
                 (A) (A) (A) (A) (A) (A) (A) (A) (A) (A) (A)
       Virtual   (A) (A) (A) (A) (A) (A) (A) (A) (A) (A) (A) (A)
                 (A) (A) (A) (A) (A) (A) (A) (A) (A) (A) (A) (A)
                 (A) (A) (A) (A) (A) (A) (A) (A) (A) (A) (A) (A)
                 (A) (A) (A) (A) (A) (A) (A) (A) (A) (A) (A) (A)
                 (A) (A) (A) (A) (A) (A) (A) (A) (A) (A) (A) (A)
                 (A) (A) (A) (A) (A) (A) (A) (A) (A) (A) (A) (A)
                 (A) (A) (A) (A) (A) (A) (A) (A) (A) (A) (A) (A)
                 (A) (A) (A) (A) (A) (A) (A) (A) (A) (A) (A) (A)
                 (A) (A) (A) (A) (A) (A) (A) (A) (A) (A) (A) (A)
                 (A) (A) (A) (A) (A) (A) (A) (A) (A) (A) (A) (A)
                 (A) (A) (A) (A) (A) (A) (A) (A) (A) (A) (A) (A)
                 (A) (A) (A) (A) (A) (A) (A) (A) (A) (A) (A) (A)
                 (A) (A) (A) (A) (A) (A) (A) (A) (A) (A) (A) (A)
                 (A) (A) (A) (A) (A) (A) (A) (A) (A) (A) (A) (A)
                 (A) (A) (A) (A) (A) (A) (A) (A) (A) (A) (A) (A)
                 (A) (A) (A) (A) (A) (A) (A) (A) (A) (A) (A) (A)
                 (A) (A) (A) (A) (A) (A) (A) (A) (A) (A) (A) (A)
                 (A) (A) (A) (A) (A) (A) (A) (A) (A) (A) (A) (A)
                 (A) (A) (A) (A) (A) (A) (A) (A) (A) (A) (A) (A)
                 (A) (A) (A) (A) (A) (A) (A) (A) (A) (A) (A) (A)
                 (A) (A) (A) (A) (A) (A) (A) (A) (A) (A) (A) (A)
 The electronic state is 1-A.
 Alpha  occ. eigenvalues --  -19.09524 -14.41455 -10.25495 -10.25219 -10.25035
 Alpha  occ. eigenvalues --  -10.24213 -10.22771 -10.21679 -10.20773 -10.20141
 Alpha  occ. eigenvalues --  -10.19984 -10.19967 -10.19400 -10.19097 -10.18952
 Alpha  occ. eigenvalues --  -10.18535 -10.18420 -10.18388 -10.18256 -10.18116
 Alpha  occ. eigenvalues --  -10.17685 -10.17679 -10.17670 -10.17616 -10.17593
 Alpha  occ. eigenvalues --  -10.17369 -10.17289 -10.15406 -10.14496 -10.14489
 Alpha  occ. eigenvalues --  -10.14211 -10.13966 -10.13251  -1.00820  -0.99985
 Alpha  occ. eigenvalues --   -0.87437  -0.84769  -0.83994  -0.80924  -0.80836
 Alpha  occ. eigenvalues --   -0.78697  -0.78093  -0.77698  -0.76325  -0.75672
 Alpha  occ. eigenvalues --   -0.72534  -0.70544  -0.69942  -0.69207  -0.68324
 Alpha  occ. eigenvalues --   -0.66845  -0.66419  -0.65974  -0.65628  -0.65212
 Alpha  occ. eigenvalues --   -0.64416  -0.60443  -0.58702  -0.58235  -0.57332
 Alpha  occ. eigenvalues --   -0.55937  -0.54788  -0.52778  -0.52588  -0.50753
 Alpha  occ. eigenvalues --   -0.49892  -0.49424  -0.47939  -0.47907  -0.46904
 Alpha  occ. eigenvalues --   -0.46446  -0.45472  -0.44946  -0.44453  -0.44208
 Alpha  occ. eigenvalues --   -0.43629  -0.43381  -0.42671  -0.42322  -0.41668
 Alpha  occ. eigenvalues --   -0.41442  -0.41368  -0.41230  -0.41130  -0.40711
 Alpha  occ. eigenvalues --   -0.40030  -0.39670  -0.39629  -0.38960  -0.38852
 Alpha  occ. eigenvalues --   -0.38183  -0.37923  -0.37138  -0.36852  -0.36220
 Alpha  occ. eigenvalues --   -0.35599  -0.35256  -0.34909  -0.34484  -0.34291
 Alpha  occ. eigenvalues --   -0.34154  -0.33923  -0.33743  -0.33194  -0.31330
 Alpha  occ. eigenvalues --   -0.31094  -0.30689  -0.30263  -0.30013  -0.29430
 Alpha  occ. eigenvalues --   -0.29053  -0.28696  -0.25197  -0.24870  -0.23988
 Alpha  occ. eigenvalues --   -0.23438  -0.23036  -0.20776  -0.16055
 Alpha virt. eigenvalues --   -0.06455  -0.02574  -0.01472  -0.00234   0.00112
 Alpha virt. eigenvalues --    0.03687   0.04448   0.06148   0.08011   0.08775
 Alpha virt. eigenvalues --    0.09256   0.09705   0.09920   0.10546   0.11293
 Alpha virt. eigenvalues --    0.11440   0.12035   0.12610   0.13099   0.13608
 Alpha virt. eigenvalues --    0.13756   0.13952   0.14813   0.14994   0.15308
 Alpha virt. eigenvalues --    0.15759   0.16162   0.16340   0.16451   0.16656
 Alpha virt. eigenvalues --    0.17382   0.17842   0.18224   0.18684   0.18884
 Alpha virt. eigenvalues --    0.19091   0.19496   0.19781   0.20203   0.20745
 Alpha virt. eigenvalues --    0.21013   0.21414   0.21981   0.22152   0.22285
 Alpha virt. eigenvalues --    0.22882   0.23042   0.23421   0.23523   0.23859
 Alpha virt. eigenvalues --    0.24192   0.24528   0.24762   0.25452   0.25518
 Alpha virt. eigenvalues --    0.25820   0.26731   0.27141   0.27714   0.27848
 Alpha virt. eigenvalues --    0.28746   0.29290   0.29678   0.31337   0.32203
 Alpha virt. eigenvalues --    0.32591   0.32943   0.33901   0.35140   0.36017
 Alpha virt. eigenvalues --    0.37484   0.38035   0.38838   0.40030   0.40626
 Alpha virt. eigenvalues --    0.41791   0.43794   0.46055   0.46964   0.47980
 Alpha virt. eigenvalues --    0.48322   0.49517   0.49932   0.50788   0.51378
 Alpha virt. eigenvalues --    0.51621   0.52686   0.53156   0.53608   0.54047
 Alpha virt. eigenvalues --    0.54154   0.54760   0.55004   0.55218   0.55273
 Alpha virt. eigenvalues --    0.55668   0.56137   0.57020   0.57123   0.57751
 Alpha virt. eigenvalues --    0.58518   0.58867   0.59036   0.59730   0.60079
 Alpha virt. eigenvalues --    0.60125   0.60979   0.61387   0.62102   0.62178
 Alpha virt. eigenvalues --    0.62918   0.63131   0.63663   0.63805   0.64483
 Alpha virt. eigenvalues --    0.64968   0.65130   0.65171   0.65740   0.66612
 Alpha virt. eigenvalues --    0.67834   0.68781   0.69472   0.70101   0.70792
 Alpha virt. eigenvalues --    0.71116   0.71497   0.71965   0.72305   0.72838
 Alpha virt. eigenvalues --    0.73284   0.73818   0.74506   0.75109   0.75910
 Alpha virt. eigenvalues --    0.76640   0.76782   0.77774   0.77986   0.78813
 Alpha virt. eigenvalues --    0.79122   0.79829   0.80142   0.80503   0.81256
 Alpha virt. eigenvalues --    0.82260   0.82570   0.83127   0.83624   0.83969
 Alpha virt. eigenvalues --    0.84201   0.85121   0.85693   0.86575   0.86691
 Alpha virt. eigenvalues --    0.87552   0.87806   0.88898   0.89534   0.90364
 Alpha virt. eigenvalues --    0.90579   0.90883   0.91031   0.91683   0.92179
 Alpha virt. eigenvalues --    0.92757   0.93297   0.93718   0.94004   0.94556
 Alpha virt. eigenvalues --    0.94735   0.95395   0.96136   0.96404   0.96637
 Alpha virt. eigenvalues --    0.96958   0.97441   0.97968   0.98472   0.98816
 Alpha virt. eigenvalues --    0.99161   0.99371   0.99780   0.99944   1.00180
 Alpha virt. eigenvalues --    1.00524   1.00980   1.01665   1.01868   1.02426
 Alpha virt. eigenvalues --    1.02838   1.03023   1.03812   1.04426   1.04855
 Alpha virt. eigenvalues --    1.05282   1.06128   1.07192   1.07916   1.08421
 Alpha virt. eigenvalues --    1.09268   1.09726   1.10962   1.11519   1.12240
 Alpha virt. eigenvalues --    1.12826   1.15358   1.16920   1.17230   1.18650
 Alpha virt. eigenvalues --    1.19020   1.20275   1.21002   1.21275   1.21513
 Alpha virt. eigenvalues --    1.22003   1.24357   1.24945   1.25455   1.26326
 Alpha virt. eigenvalues --    1.26612   1.28311   1.28927   1.29596   1.31404
 Alpha virt. eigenvalues --    1.32672   1.34197   1.36262   1.39245   1.40307
 Alpha virt. eigenvalues --    1.42914   1.44094   1.44728   1.46711   1.46904
 Alpha virt. eigenvalues --    1.49386   1.52143   1.53086   1.54677   1.55248
 Alpha virt. eigenvalues --    1.56106   1.59852   1.65417   1.66974   1.71598
 Alpha virt. eigenvalues --    1.81126   1.86622   1.88831   1.89287   1.89939
 Alpha virt. eigenvalues --    1.93712   2.13906
          Condensed to atoms (all electrons):
 Mulliken charges:
               1
     1  C   -0.487338
     2  C    0.133894
     3  C   -0.169199
     4  C   -0.112254
     5  C   -0.036281
     6  C    0.009917
     7  C    0.087562
     8  N   -0.592310
     9  C   -0.250204
    10  C    0.122917
    11  C   -0.105109
    12  C    0.154545
    13  C   -0.274518
    14  C   -0.154532
    15  C   -0.142998
    16  C    0.096274
    17  C    0.058613
    18  C   -0.002291
    19  C   -0.401593
    20  C   -0.390033
    21  C   -0.398291
    22  C    0.186228
    23  O   -0.478978
    24  C    0.154535
    25  C   -0.019887
    26  C   -0.399489
    27  C   -0.406103
    28  C   -0.396600
    29  C   -0.153160
    30  C   -0.381304
    31  C    0.147294
    32  C   -0.220888
    33  H    0.146479
    34  H    0.148011
    35  H    0.164874
    36  H    0.122327
    37  H    0.170569
    38  H    0.171878
    39  H    0.169824
    40  H    0.175689
    41  H    0.160074
    42  H    0.157715
    43  H    0.157967
    44  H    0.117085
    45  H    0.179554
    46  H    0.107134
    47  H    0.124551
    48  H    0.129564
    49  H    0.119452
    50  H    0.122689
    51  H    0.119184
    52  H    0.157346
    53  H    0.126098
    54  H    0.122865
    55  H    0.126656
    56  H    0.119596
    57  H    0.117361
    58  H    0.170016
    59  H    0.114785
    60  H    0.179713
    61  H    0.113433
    62  H    0.125491
    63  H    0.174226
    64  H    0.179137
    65  H    0.121272
    66  C   -0.480755
    67  H    0.143911
    68  H    0.174976
    69  H    0.141056
    70  H    0.129776
 Sum of Mulliken charges =  -0.00000
 Mulliken charges with hydrogens summed into heavy atoms:
               1
     1  C   -0.027974
     2  C    0.133894
     3  C   -0.046871
     4  C    0.017522
     5  C   -0.036281
     6  C    0.009917
     7  C    0.258131
     8  N   -0.592310
     9  C    0.267187
    10  C    0.282990
    11  C    0.052606
    12  C    0.154545
    13  C   -0.274518
    14  C   -0.154532
    15  C    0.014969
    16  C    0.096274
    17  C    0.058613
    18  C   -0.002291
    19  C    0.002180
    20  C   -0.016466
    21  C    0.000928
    22  C    0.186228
    23  O   -0.478978
    24  C    0.154535
    25  C   -0.019887
    26  C   -0.023871
    27  C    0.000870
    28  C    0.011331
    29  C   -0.027669
    30  C   -0.027941
    31  C    0.147294
    32  C   -0.099616
    66  C   -0.020812
 Electronic spatial extent (au):  <R**2>=          18886.1229
 Charge=             -0.0000 electrons
 Dipole moment (field-independent basis, Debye):
    X=             12.8175    Y=              1.5115    Z=              0.8358  Tot=             12.9333
 Quadrupole moment (field-independent basis, Debye-Ang):
   XX=           -163.5457   YY=           -189.9529   ZZ=           -200.3553
   XY=            -15.3423   XZ=             -4.7931   YZ=              1.2985
 Traceless Quadrupole moment (field-independent basis, Debye-Ang):
   XX=             21.0723   YY=             -5.3350   ZZ=            -15.7373
   XY=            -15.3423   XZ=             -4.7931   YZ=              1.2985
 Octapole moment (field-independent basis, Debye-Ang**2):
  XXX=            653.6236  YYY=             -1.1664  ZZZ=              0.5443  XYY=             31.9895
  XXY=            -53.0764  XXZ=             38.2214  XZZ=             12.1724  YZZ=             18.1739
  YYZ=              0.7309  XYZ=             10.5475
 Hexadecapole moment (field-independent basis, Debye-Ang**3):
 XXXX=         -15030.3941 YYYY=          -6550.7219 ZZZZ=          -1205.0123 XXXY=           -758.7821
 XXXZ=            -75.4327 YYYX=           -143.0030 YYYZ=             40.7169 ZZZX=             25.2036
 ZZZY=             18.0519 XXYY=          -3969.6576 XXZZ=          -3301.9594 YYZZ=          -1325.1077
 XXYZ=              8.5698 YYXZ=              2.2132 ZZXY=             33.4033
 N-N= 3.276178510986D+03 E-N=-9.645905085347D+03  KE= 1.325482155043D+03
 Unable to Open any file for archive entry.
 1\1\GINC-N1\FOpt\RB3LYP\6-31G\C31H37N1O1\HPCMGAC13\11-Jun-2025\0\\# op
 t b3lyp/6-31g\\[No Title]\\0,1\C,0.411020409,4.2664587589,-2.257160813
 4\C,-0.4566335809,3.1277142237,-1.767208833\C,-1.0255683009,2.21175381
 03,-2.6639948271\C,-1.8042720913,1.1512448174,-2.1935148976\C,-2.03940
 48719,0.9708950873,-0.8200523739\C,-2.8998641401,-0.1648982771,-0.3689
 50493\C,-4.2456874556,-0.1097945776,-0.6070349417\N,-5.1255654007,-1.1
 196241202,-0.2437335936\C,-6.5700493871,-0.9558458491,-0.4425852707\C,
 -4.6211842725,-2.2342983069,0.4110936369\C,-3.2936892937,-2.3632264512
 ,0.6742128999\C,-2.3306346317,-1.3468789744,0.2861566104\C,-0.99826165
 61,-1.5168833489,0.5000864466\C,0.2241508745,-1.7344852402,0.688828843
 \C,1.5359595165,-1.9949986759,0.888396337\C,2.6178067518,-1.0822579122
 ,0.5734007601\C,3.968177891,-1.3753822429,0.6780073315\C,4.5588680098,
 -2.8076970801,0.8321548549\C,6.0463284271,-2.8754282994,0.3690319199\C
 ,3.8269466501,-3.8301226459,-0.0894064712\C,4.4982927833,-3.2626072515
 ,2.3167440189\C,4.8948617323,-0.2195221981,0.7753070302\O,5.9717215946
 ,-0.3117566004,1.4337593319\C,4.5403180021,1.0717940055,0.1104146119\C
 ,5.6503254138,2.1039139696,-0.1734374719\C,5.126189375,3.2672795752,-1
 .0485102177\C,6.8260149005,1.4282177602,-0.9315545289\C,6.1724785401,2
 .7014572229,1.1644605569\C,3.2398820806,1.2826710022,-0.1722216563\C,2
 .1645355906,0.3065522117,0.1654700578\C,-1.478896284,1.8904450572,0.10
 06215304\C,-0.7027668956,2.9485982546,-0.3957873697\H,0.1258396193,4.5
 811675597,-3.2666516597\H,0.3394001302,5.1377824044,-1.5973736606\H,1.
 4694656259,3.9741004486,-2.2953846779\H,-0.8596097689,2.326871403,-3.7
 313106433\H,-4.6926219543,0.7467692046,-1.0961363914\H,-6.7514336897,-
 0.3659207812,-1.3440031532\H,-7.0345071805,-1.9359083003,-0.574122759\
 H,-7.0411814639,-0.4522033465,0.4108019812\H,-5.3459773317,-2.98902238
 11,0.6884671892\H,-2.9353121635,-3.2558196691,1.1715033052\H,1.7793309
 03,-2.9280785441,1.3803544378\H,6.1542213749,-2.4949935206,-0.65452293
 2\H,6.7022836167,-2.3001329349,1.0185474415\H,6.3653722216,-3.92476166
 68,0.3715076149\H,2.7800083114,-3.9985206479,0.1593755146\H,3.87029707
 3,-3.4962399124,-1.1328958338\H,4.3415533084,-4.7961931449,-0.02305032
 04\H,3.4708970781,-3.2910102697,2.6969270104\H,4.9282608607,-4.2671565
 407,2.4242212864\H,5.0748594136,-2.5710222907,2.9390558521\H,4.7234678
 369,2.9064972837,-2.0029012961\H,4.3461405731,3.8444903672,-0.53767219
 31\H,5.9517807189,3.9536233655,-1.2687112132\H,6.4845207689,1.01112507
 02,-1.8872921562\H,7.6047777541,2.1708966664,-1.1450385074\H,7.2661930
 228,0.6270628992,-0.3347301312\H,5.3604174994,3.2047728986,1.703843264
 8\H,6.5809463552,1.9143419745,1.799757822\H,6.956481548,3.4423863666,0
 .9601753737\H,2.9072419211,2.2073802313,-0.6327149974\H,1.5324146713,0
 .731066979,0.962198395\H,1.4758572788,0.2073885356,-0.6874277399\H,-0.
 2859021896,3.6622659379,0.3108151778\C,-1.7219332792,1.7657776537,1.58
 87191917\H,-2.7918215882,1.6876586051,1.8162778972\H,-1.2423478184,0.8
 681840738,1.9965065372\H,-1.3251857415,2.6340439951,2.1232809923\H,-2.
 2322686866,0.4435255129,-2.8972059076\\Version=ES64L-G16RevC.02\State=
 1-A\HF=-1333.1421228\RMSD=4.281e-09\RMSF=3.863e-06\Dipole=-4.9967224,0
 .3322393,-0.9021576\Quadrupole=16.124049,-4.8826617,-11.2413873,10.373
 1074,-4.8865073,-2.4908862\PG=C01 [X(C31H37N1O1)]\\@
 The archive entry for this job was punched.


 OPTIMIST - A PESSIMIST WHO LACKS EXPERIENCE
 Job cpu time:       0 days  8 hours 59 minutes  6.8 seconds.
 Elapsed time:       0 days  0 hours 36 minutes  4.0 seconds.
 File lengths (MBytes):  RWF=    106 Int=      0 D2E=      0 Chk=     15 Scr=      2
 Normal termination of Gaussian 16 at Wed Jun 11 11:41:23 2025.
