 Entering Gaussian System, Link 0=g16
 Input=M2451.gjf
 Output=M2451.log
 Initial command:
 /hpc/softwares/Gaussian/g16/l1.exe "/hpc/home/hpcmgac13/pbs.11098.admin1.x8z/Gau-1688071.inp" -scrdir="/hpc/home/hpcmgac13/pbs.11098.admin1.x8z/"
 Default linda workers: n1
 Default is to use   8 SMP processors on each worker.
 Entering Link 1 = /hpc/softwares/Gaussian/g16/l1.exe PID=   1688072.
  
 Copyright (c) 1988-2021, Gaussian, Inc.  All Rights Reserved.
  
 This is part of the Gaussian(R) 16 program.  It is based on
 the Gaussian(R) 09 system (copyright 2009, Gaussian, Inc.),
 the Gaussian(R) 03 system (copyright 2003, Gaussian, Inc.),
 the Gaussian(R) 98 system (copyright 1998, Gaussian, Inc.),
 the Gaussian(R) 94 system (copyright 1995, Gaussian, Inc.),
 the Gaussian 92(TM) system (copyright 1992, Gaussian, Inc.),
 the Gaussian 90(TM) system (copyright 1990, Gaussian, Inc.),
 the Gaussian 88(TM) system (copyright 1988, Gaussian, Inc.),
 the Gaussian 86(TM) system (copyright 1986, Carnegie Mellon
 University), and the Gaussian 82(TM) system (copyright 1983,
 Carnegie Mellon University). Gaussian is a federally registered
 trademark of Gaussian, Inc.
  
 This software contains proprietary and confidential information,
 including trade secrets, belonging to Gaussian, Inc.
  
 This software is provided under written license and may be
 used, copied, transmitted, or stored only in accord with that
 written license.
  
 The following legend is applicable only to US Government
 contracts under FAR:
  
                    RESTRICTED RIGHTS LEGEND
  
 Use, reproduction and disclosure by the US Government is
 subject to restrictions as set forth in subparagraphs (a)
 and (c) of the Commercial Computer Software - Restricted
 Rights clause in FAR 52.227-19.
  
 Gaussian, Inc.
 340 Quinnipiac St., Bldg. 40, Wallingford CT 06492
  
  
 ---------------------------------------------------------------
 Warning -- This program may not be used in any manner that
 competes with the business of Gaussian, Inc. or will provide
 assistance to any competitor of Gaussian, Inc.  The licensee
 of this program is prohibited from giving any competitor of
 Gaussian, Inc. access to this program.  By using this program,
 the user acknowledges that Gaussian, Inc. is engaged in the
 business of creating and licensing software in the field of
 computational chemistry and represents and warrants to the
 licensee that it is not a competitor of Gaussian, Inc. and that
 it will not use this program in any manner prohibited above.
 ---------------------------------------------------------------
  

 Cite this work as:
 Gaussian 16, Revision C.02,
 M. J. Frisch, G. W. Trucks, H. B. Schlegel, G. E. Scuseria, 
 M. A. Robb, J. R. Cheeseman, G. Scalmani, V. Barone, 
 G. A. Petersson, H. Nakatsuji, X. Li, M. Caricato, A. V. Marenich, 
 J. Bloino, B. G. Janesko, R. Gomperts, B. Mennucci, H. P. Hratchian, 
 J. V. Ortiz, A. F. Izmaylov, J. L. Sonnenberg, D. Williams-Young, 
 F. Ding, F. Lipparini, F. Egidi, J. Goings, B. Peng, A. Petrone, 
 T. Henderson, D. Ranasinghe, V. G. Zakrzewski, J. Gao, N. Rega, 
 G. Zheng, W. Liang, M. Hada, M. Ehara, K. Toyota, R. Fukuda, 
 J. Hasegawa, M. Ishida, T. Nakajima, Y. Honda, O. Kitao, H. Nakai, 
 T. Vreven, K. Throssell, J. A. Montgomery, Jr., J. E. Peralta, 
 F. Ogliaro, M. J. Bearpark, J. J. Heyd, E. N. Brothers, K. N. Kudin, 
 V. N. Staroverov, T. A. Keith, R. Kobayashi, J. Normand, 
 K. Raghavachari, A. P. Rendell, J. C. Burant, S. S. Iyengar, 
 J. Tomasi, M. Cossi, J. M. Millam, M. Klene, C. Adamo, R. Cammi, 
 J. W. Ochterski, R. L. Martin, K. Morokuma, O. Farkas, 
 J. B. Foresman, and D. J. Fox, Gaussian, Inc., Wallingford CT, 2019.
 
 ******************************************
 Gaussian 16:  ES64L-G16RevC.02  7-Dec-2021
                13-Jun-2025 
 ******************************************
 SetLPE:    new flags="-opt 'Tsnet.Node.lindarsharg: ssh'  -nodelist 'n1' -env GAUSS_MDEF=4294967296 -env GAUSS_EXEDIR="/hpc/softwares/Gaussian/g16/bsd:/hpc/softwares/Gaussian/g16""
 Will use up to    1 processors via Linda.
 -----------------
 # opt b3lyp/6-31g
 -----------------
 1/18=20,19=15,26=3,38=1/1,3;
 2/9=110,12=2,17=6,18=5,40=1/2;
 3/5=1,6=6,11=2,25=1,30=1,71=1,74=-5/1,2,3;
 4//1;
 5/5=2,38=5/2;
 6/7=2,8=2,9=2,10=2,28=1/1;
 7//1,2,3,16;
 1/18=20,19=15,26=3/3(2);
 2/9=110/2;
 99//99;
 2/9=110/2;
 3/5=1,6=6,11=2,25=1,30=1,71=1,74=-5/1,2,3;
 4/5=5,16=3,69=1/1;
 5/5=2,38=5/2;
 7//1,2,3,16;
 1/18=20,19=15,26=3/3(-5);
 2/9=110/2;
 6/7=2,8=2,9=2,10=2,19=2,28=1/1;
 99/9=1/99;
 ----------
 [No Title]
 ----------
 Symbolic Z-matrix:
 Charge =  0 Multiplicity = 1
 C                     2.96127   0.90323   0.3411 
 C                     1.61545   0.16227   0.44766 
 C                     1.4738   -0.90835   1.34078 
 C                     0.24905  -1.58252   1.4379 
 C                     0.09339  -2.75901   2.41937 
 C                    -0.83404  -1.18605   0.64188 
 C                    -2.18008  -1.92654   0.74874 
 C                    -3.22816  -1.5476   -0.02335 
 N                    -4.47267  -2.01794   0.19483 
 C                    -5.54458  -1.65136  -0.74193 
 C                    -4.77171  -2.79601   1.25446 
 C                    -3.81119  -3.2457    2.09907 
 C                    -2.33609  -3.09928   1.71926 
 C                    -0.6923   -0.11566  -0.25145 
 C                    -1.88244   0.31957  -1.12652 
 N                    -1.78882   1.76094  -1.39953 
 N                    -0.63866   2.13162  -2.10545 
 C                    -0.98832   3.19499  -2.83439 
 O                    -0.0725    4.03545  -3.54137 
 N                    -2.31334   3.36336  -2.81046 
 N                    -2.83354   2.2018   -2.22806 
 C                    -4.07411   2.419    -1.46997 
 C                    -5.0076    1.38167  -1.34169 
 C                    -6.19028   1.58871  -0.61898 
 C                    -6.43947   2.83309  -0.02455 
 C                    -5.50597   3.87042  -0.15283 
 C                    -4.32329   3.66337  -0.87555 
 C                     0.53239   0.5586   -0.34848 
 H                     3.464     0.86712   1.28495 
 H                     3.56856   0.43424  -0.40465 
 H                     2.78632   1.92315   0.06897 
 H                     2.30077  -1.21104   1.94855 
 H                     1.03572  -3.25189   2.53765 
 H                    -0.23807  -2.39084   3.36778 
 H                    -0.62563  -3.45174   2.03461 
 H                    -3.06542  -0.85168  -0.81966 
 H                    -5.33533  -0.69123  -1.16534 
 H                    -5.60091  -2.38086  -1.52266 
 H                    -6.47775  -1.61513  -0.21964 
 H                    -5.79283  -3.05765   1.43818 
 H                    -4.08371  -3.70833   3.0246 
 H                    -1.74492  -2.93327   2.59554 
 H                    -2.01113  -3.99651   1.23525 
 H                    -1.86229  -0.22039  -2.05007 
 H                    -2.79769   0.1127   -0.61231 
 H                    -4.81735   0.43156  -1.79556 
 H                    -6.90302   0.79668  -0.52101 
 H                    -7.34247   2.99117   0.52724 
 H                    -5.69623   4.82053   0.30103 
 H                    -3.61055   4.45539  -0.9735 
 H                     0.64053   1.37599  -1.03045 
 

 GradGradGradGradGradGradGradGradGradGradGradGradGradGradGradGradGradGrad
 Berny optimization.
 Initialization pass.
                           ----------------------------
                           !    Initial Parameters    !
                           ! (Angstroms and Degrees)  !
 --------------------------                            --------------------------
 ! Name  Definition              Value          Derivative Info.                !
 --------------------------------------------------------------------------------
 ! R1    R(1,2)                  1.54           estimate D2E/DX2                !
 ! R2    R(1,29)                 1.07           estimate D2E/DX2                !
 ! R3    R(1,30)                 1.07           estimate D2E/DX2                !
 ! R4    R(1,31)                 1.07           estimate D2E/DX2                !
 ! R5    R(2,3)                  1.4014         estimate D2E/DX2                !
 ! R6    R(2,28)                 1.4014         estimate D2E/DX2                !
 ! R7    R(3,4)                  1.4014         estimate D2E/DX2                !
 ! R8    R(3,32)                 1.07           estimate D2E/DX2                !
 ! R9    R(4,5)                  1.54           estimate D2E/DX2                !
 ! R10   R(4,6)                  1.4014         estimate D2E/DX2                !
 ! R11   R(5,33)                 1.07           estimate D2E/DX2                !
 ! R12   R(5,34)                 1.07           estimate D2E/DX2                !
 ! R13   R(5,35)                 1.07           estimate D2E/DX2                !
 ! R14   R(6,7)                  1.54           estimate D2E/DX2                !
 ! R15   R(6,14)                 1.4014         estimate D2E/DX2                !
 ! R16   R(7,8)                  1.3558         estimate D2E/DX2                !
 ! R17   R(7,13)                 1.5302         estimate D2E/DX2                !
 ! R18   R(8,9)                  1.3482         estimate D2E/DX2                !
 ! R19   R(8,36)                 1.07           estimate D2E/DX2                !
 ! R20   R(9,10)                 1.47           estimate D2E/DX2                !
 ! R21   R(9,11)                 1.3482         estimate D2E/DX2                !
 ! R22   R(10,37)                1.07           estimate D2E/DX2                !
 ! R23   R(10,38)                1.07           estimate D2E/DX2                !
 ! R24   R(10,39)                1.07           estimate D2E/DX2                !
 ! R25   R(11,12)                1.3558         estimate D2E/DX2                !
 ! R26   R(11,40)                1.07           estimate D2E/DX2                !
 ! R27   R(12,13)                1.5302         estimate D2E/DX2                !
 ! R28   R(12,41)                1.07           estimate D2E/DX2                !
 ! R29   R(13,42)                1.07           estimate D2E/DX2                !
 ! R30   R(13,43)                1.07           estimate D2E/DX2                !
 ! R31   R(14,15)                1.54           estimate D2E/DX2                !
 ! R32   R(14,28)                1.4014         estimate D2E/DX2                !
 ! R33   R(15,16)                1.47           estimate D2E/DX2                !
 ! R34   R(15,44)                1.07           estimate D2E/DX2                !
 ! R35   R(15,45)                1.07           estimate D2E/DX2                !
 ! R36   R(16,17)                1.3995         estimate D2E/DX2                !
 ! R37   R(16,21)                1.4044         estimate D2E/DX2                !
 ! R38   R(17,18)                1.3358         estimate D2E/DX2                !
 ! R39   R(18,19)                1.43           estimate D2E/DX2                !
 ! R40   R(18,20)                1.3359         estimate D2E/DX2                !
 ! R41   R(20,21)                1.3996         estimate D2E/DX2                !
 ! R42   R(21,22)                1.47           estimate D2E/DX2                !
 ! R43   R(22,23)                1.4014         estimate D2E/DX2                !
 ! R44   R(22,27)                1.4014         estimate D2E/DX2                !
 ! R45   R(23,24)                1.4014         estimate D2E/DX2                !
 ! R46   R(23,46)                1.07           estimate D2E/DX2                !
 ! R47   R(24,25)                1.4014         estimate D2E/DX2                !
 ! R48   R(24,47)                1.07           estimate D2E/DX2                !
 ! R49   R(25,26)                1.4014         estimate D2E/DX2                !
 ! R50   R(25,48)                1.07           estimate D2E/DX2                !
 ! R51   R(26,27)                1.4014         estimate D2E/DX2                !
 ! R52   R(26,49)                1.07           estimate D2E/DX2                !
 ! R53   R(27,50)                1.07           estimate D2E/DX2                !
 ! R54   R(28,51)                1.07           estimate D2E/DX2                !
 ! A1    A(2,1,29)             109.471          estimate D2E/DX2                !
 ! A2    A(2,1,30)             109.4716         estimate D2E/DX2                !
 ! A3    A(2,1,31)             109.4712         estimate D2E/DX2                !
 ! A4    A(29,1,30)            109.4712         estimate D2E/DX2                !
 ! A5    A(29,1,31)            109.4711         estimate D2E/DX2                !
 ! A6    A(30,1,31)            109.4712         estimate D2E/DX2                !
 ! A7    A(1,2,3)              119.9998         estimate D2E/DX2                !
 ! A8    A(1,2,28)             120.0005         estimate D2E/DX2                !
 ! A9    A(3,2,28)             119.9996         estimate D2E/DX2                !
 ! A10   A(2,3,4)              120.0008         estimate D2E/DX2                !
 ! A11   A(2,3,32)             119.9995         estimate D2E/DX2                !
 ! A12   A(4,3,32)             119.9997         estimate D2E/DX2                !
 ! A13   A(3,4,5)              120.0007         estimate D2E/DX2                !
 ! A14   A(3,4,6)              119.9981         estimate D2E/DX2                !
 ! A15   A(5,4,6)              120.0011         estimate D2E/DX2                !
 ! A16   A(4,5,33)             109.4711         estimate D2E/DX2                !
 ! A17   A(4,5,34)             109.4717         estimate D2E/DX2                !
 ! A18   A(4,5,35)             109.4714         estimate D2E/DX2                !
 ! A19   A(33,5,34)            109.4712         estimate D2E/DX2                !
 ! A20   A(33,5,35)            109.4711         estimate D2E/DX2                !
 ! A21   A(34,5,35)            109.471          estimate D2E/DX2                !
 ! A22   A(4,6,7)              120.005          estimate D2E/DX2                !
 ! A23   A(4,6,14)             120.0009         estimate D2E/DX2                !
 ! A24   A(7,6,14)             119.9941         estimate D2E/DX2                !
 ! A25   A(6,7,8)              120.1169         estimate D2E/DX2                !
 ! A26   A(6,7,13)             120.1079         estimate D2E/DX2                !
 ! A27   A(8,7,13)             119.7737         estimate D2E/DX2                !
 ! A28   A(7,8,9)              121.5955         estimate D2E/DX2                !
 ! A29   A(7,8,36)             119.2105         estimate D2E/DX2                !
 ! A30   A(9,8,36)             119.1917         estimate D2E/DX2                !
 ! A31   A(8,9,10)             118.881          estimate D2E/DX2                !
 ! A32   A(8,9,11)             122.2271         estimate D2E/DX2                !
 ! A33   A(10,9,11)            118.8837         estimate D2E/DX2                !
 ! A34   A(9,10,37)            109.4708         estimate D2E/DX2                !
 ! A35   A(9,10,38)            109.4717         estimate D2E/DX2                !
 ! A36   A(9,10,39)            109.4712         estimate D2E/DX2                !
 ! A37   A(37,10,38)           109.4712         estimate D2E/DX2                !
 ! A38   A(37,10,39)           109.4711         estimate D2E/DX2                !
 ! A39   A(38,10,39)           109.4713         estimate D2E/DX2                !
 ! A40   A(9,11,12)            121.5945         estimate D2E/DX2                !
 ! A41   A(9,11,40)            119.1923         estimate D2E/DX2                !
 ! A42   A(12,11,40)           119.2109         estimate D2E/DX2                !
 ! A43   A(11,12,13)           119.7735         estimate D2E/DX2                !
 ! A44   A(11,12,41)           120.1205         estimate D2E/DX2                !
 ! A45   A(13,12,41)           120.1044         estimate D2E/DX2                !
 ! A46   A(7,13,12)            109.2098         estimate D2E/DX2                !
 ! A47   A(7,13,42)            110.1316         estimate D2E/DX2                !
 ! A48   A(7,13,43)            108.9522         estimate D2E/DX2                !
 ! A49   A(12,13,42)           110.1307         estimate D2E/DX2                !
 ! A50   A(12,13,43)           108.9535         estimate D2E/DX2                !
 ! A51   A(42,13,43)           109.4367         estimate D2E/DX2                !
 ! A52   A(6,14,15)            119.995          estimate D2E/DX2                !
 ! A53   A(6,14,28)            120.0015         estimate D2E/DX2                !
 ! A54   A(15,14,28)           120.0034         estimate D2E/DX2                !
 ! A55   A(14,15,16)           109.4766         estimate D2E/DX2                !
 ! A56   A(14,15,44)           109.4684         estimate D2E/DX2                !
 ! A57   A(14,15,45)           109.4711         estimate D2E/DX2                !
 ! A58   A(16,15,44)           109.4698         estimate D2E/DX2                !
 ! A59   A(16,15,45)           109.4694         estimate D2E/DX2                !
 ! A60   A(44,15,45)           109.472          estimate D2E/DX2                !
 ! A61   A(15,16,17)           113.9372         estimate D2E/DX2                !
 ! A62   A(15,16,21)           111.7155         estimate D2E/DX2                !
 ! A63   A(17,16,21)           103.3344         estimate D2E/DX2                !
 ! A64   A(16,17,18)           105.7229         estimate D2E/DX2                !
 ! A65   A(17,18,19)           124.7513         estimate D2E/DX2                !
 ! A66   A(17,18,20)           110.4985         estimate D2E/DX2                !
 ! A67   A(19,18,20)           124.7502         estimate D2E/DX2                !
 ! A68   A(18,20,21)           105.7536         estimate D2E/DX2                !
 ! A69   A(16,21,20)           103.269          estimate D2E/DX2                !
 ! A70   A(16,21,22)           111.7115         estimate D2E/DX2                !
 ! A71   A(20,21,22)           113.9303         estimate D2E/DX2                !
 ! A72   A(21,22,23)           119.999          estimate D2E/DX2                !
 ! A73   A(21,22,27)           120.0006         estimate D2E/DX2                !
 ! A74   A(23,22,27)           120.0004         estimate D2E/DX2                !
 ! A75   A(22,23,24)           120.0001         estimate D2E/DX2                !
 ! A76   A(22,23,46)           120.0002         estimate D2E/DX2                !
 ! A77   A(24,23,46)           119.9996         estimate D2E/DX2                !
 ! A78   A(23,24,25)           119.9995         estimate D2E/DX2                !
 ! A79   A(23,24,47)           120.0004         estimate D2E/DX2                !
 ! A80   A(25,24,47)           120.0001         estimate D2E/DX2                !
 ! A81   A(24,25,26)           120.0001         estimate D2E/DX2                !
 ! A82   A(24,25,48)           119.9998         estimate D2E/DX2                !
 ! A83   A(26,25,48)           120.0001         estimate D2E/DX2                !
 ! A84   A(25,26,27)           120.0003         estimate D2E/DX2                !
 ! A85   A(25,26,49)           120.0001         estimate D2E/DX2                !
 ! A86   A(27,26,49)           119.9996         estimate D2E/DX2                !
 ! A87   A(22,27,26)           119.9995         estimate D2E/DX2                !
 ! A88   A(22,27,50)           119.9999         estimate D2E/DX2                !
 ! A89   A(26,27,50)           120.0006         estimate D2E/DX2                !
 ! A90   A(2,28,14)            119.999          estimate D2E/DX2                !
 ! A91   A(2,28,51)            120.0011         estimate D2E/DX2                !
 ! A92   A(14,28,51)           119.9999         estimate D2E/DX2                !
 ! D1    D(29,1,2,3)           -29.9985         estimate D2E/DX2                !
 ! D2    D(29,1,2,28)          150.0018         estimate D2E/DX2                !
 ! D3    D(30,1,2,3)            90.0016         estimate D2E/DX2                !
 ! D4    D(30,1,2,28)          -89.9981         estimate D2E/DX2                !
 ! D5    D(31,1,2,3)          -149.9982         estimate D2E/DX2                !
 ! D6    D(31,1,2,28)           30.0021         estimate D2E/DX2                !
 ! D7    D(1,2,3,4)            179.9911         estimate D2E/DX2                !
 ! D8    D(1,2,3,32)            -0.0084         estimate D2E/DX2                !
 ! D9    D(28,2,3,4)            -0.0092         estimate D2E/DX2                !
 ! D10   D(28,2,3,32)          179.9913         estimate D2E/DX2                !
 ! D11   D(1,2,28,14)         -179.9975         estimate D2E/DX2                !
 ! D12   D(1,2,28,51)            0.0035         estimate D2E/DX2                !
 ! D13   D(3,2,28,14)            0.0028         estimate D2E/DX2                !
 ! D14   D(3,2,28,51)         -179.9962         estimate D2E/DX2                !
 ! D15   D(2,3,4,5)           -179.9988         estimate D2E/DX2                !
 ! D16   D(2,3,4,6)              0.0004         estimate D2E/DX2                !
 ! D17   D(32,3,4,5)             0.0006         estimate D2E/DX2                !
 ! D18   D(32,3,4,6)           179.9999         estimate D2E/DX2                !
 ! D19   D(3,4,5,33)           -30.0034         estimate D2E/DX2                !
 ! D20   D(3,4,5,34)            89.9967         estimate D2E/DX2                !
 ! D21   D(3,4,5,35)          -150.0033         estimate D2E/DX2                !
 ! D22   D(6,4,5,33)           149.9974         estimate D2E/DX2                !
 ! D23   D(6,4,5,34)           -90.0025         estimate D2E/DX2                !
 ! D24   D(6,4,5,35)            29.9975         estimate D2E/DX2                !
 ! D25   D(3,4,6,7)           -179.9845         estimate D2E/DX2                !
 ! D26   D(3,4,6,14)             0.0148         estimate D2E/DX2                !
 ! D27   D(5,4,6,7)              0.0148         estimate D2E/DX2                !
 ! D28   D(5,4,6,14)          -179.986          estimate D2E/DX2                !
 ! D29   D(4,6,7,8)           -179.7913         estimate D2E/DX2                !
 ! D30   D(4,6,7,13)            -0.2459         estimate D2E/DX2                !
 ! D31   D(14,6,7,8)             0.2094         estimate D2E/DX2                !
 ! D32   D(14,6,7,13)          179.7548         estimate D2E/DX2                !
 ! D33   D(4,6,14,15)          179.9765         estimate D2E/DX2                !
 ! D34   D(4,6,14,28)           -0.0212         estimate D2E/DX2                !
 ! D35   D(7,6,14,15)           -0.0243         estimate D2E/DX2                !
 ! D36   D(7,6,14,28)          179.9781         estimate D2E/DX2                !
 ! D37   D(6,7,8,9)           -168.8729         estimate D2E/DX2                !
 ! D38   D(6,7,8,36)            10.5726         estimate D2E/DX2                !
 ! D39   D(13,7,8,9)            11.5802         estimate D2E/DX2                !
 ! D40   D(13,7,8,36)         -168.9744         estimate D2E/DX2                !
 ! D41   D(6,7,13,12)          155.0615         estimate D2E/DX2                !
 ! D42   D(6,7,13,42)           34.0041         estimate D2E/DX2                !
 ! D43   D(6,7,13,43)          -86.0364         estimate D2E/DX2                !
 ! D44   D(8,7,13,12)          -25.3915         estimate D2E/DX2                !
 ! D45   D(8,7,13,42)         -146.4489         estimate D2E/DX2                !
 ! D46   D(8,7,13,43)           93.5105         estimate D2E/DX2                !
 ! D47   D(7,8,9,10)          -175.2238         estimate D2E/DX2                !
 ! D48   D(7,8,9,11)             5.8318         estimate D2E/DX2                !
 ! D49   D(36,8,9,10)            5.3307         estimate D2E/DX2                !
 ! D50   D(36,8,9,11)         -173.6137         estimate D2E/DX2                !
 ! D51   D(8,9,10,37)          -29.4887         estimate D2E/DX2                !
 ! D52   D(8,9,10,38)           90.5113         estimate D2E/DX2                !
 ! D53   D(8,9,10,39)         -149.4883         estimate D2E/DX2                !
 ! D54   D(11,9,10,37)         149.4915         estimate D2E/DX2                !
 ! D55   D(11,9,10,38)         -90.5085         estimate D2E/DX2                !
 ! D56   D(11,9,10,39)          29.4919         estimate D2E/DX2                !
 ! D57   D(8,9,11,12)           -5.8279         estimate D2E/DX2                !
 ! D58   D(8,9,11,40)          173.6173         estimate D2E/DX2                !
 ! D59   D(10,9,11,12)         175.2277         estimate D2E/DX2                !
 ! D60   D(10,9,11,40)          -5.3271         estimate D2E/DX2                !
 ! D61   D(9,11,12,13)         -11.5875         estimate D2E/DX2                !
 ! D62   D(9,11,12,41)         168.8893         estimate D2E/DX2                !
 ! D63   D(40,11,12,13)        168.9674         estimate D2E/DX2                !
 ! D64   D(40,11,12,41)        -10.5558         estimate D2E/DX2                !
 ! D65   D(11,12,13,7)          25.3951         estimate D2E/DX2                !
 ! D66   D(11,12,13,42)        146.4531         estimate D2E/DX2                !
 ! D67   D(11,12,13,43)        -93.5061         estimate D2E/DX2                !
 ! D68   D(41,12,13,7)        -155.0816         estimate D2E/DX2                !
 ! D69   D(41,12,13,42)        -34.0237         estimate D2E/DX2                !
 ! D70   D(41,12,13,43)         86.0171         estimate D2E/DX2                !
 ! D71   D(6,14,15,16)         149.9961         estimate D2E/DX2                !
 ! D72   D(6,14,15,44)         -90.004          estimate D2E/DX2                !
 ! D73   D(6,14,15,45)          29.9951         estimate D2E/DX2                !
 ! D74   D(28,14,15,16)        -30.0063         estimate D2E/DX2                !
 ! D75   D(28,14,15,44)         89.9936         estimate D2E/DX2                !
 ! D76   D(28,14,15,45)       -150.0072         estimate D2E/DX2                !
 ! D77   D(6,14,28,2)            0.0124         estimate D2E/DX2                !
 ! D78   D(6,14,28,51)        -179.9886         estimate D2E/DX2                !
 ! D79   D(15,14,28,2)        -179.9853         estimate D2E/DX2                !
 ! D80   D(15,14,28,51)          0.0138         estimate D2E/DX2                !
 ! D81   D(14,15,16,17)         61.6688         estimate D2E/DX2                !
 ! D82   D(14,15,16,21)        178.3104         estimate D2E/DX2                !
 ! D83   D(44,15,16,17)        -58.3302         estimate D2E/DX2                !
 ! D84   D(44,15,16,21)         58.3114         estimate D2E/DX2                !
 ! D85   D(45,15,16,17)       -178.3291         estimate D2E/DX2                !
 ! D86   D(45,15,16,21)        -61.6875         estimate D2E/DX2                !
 ! D87   D(15,16,17,18)        149.1461         estimate D2E/DX2                !
 ! D88   D(21,16,17,18)         27.7299         estimate D2E/DX2                !
 ! D89   D(15,16,21,20)       -156.5847         estimate D2E/DX2                !
 ! D90   D(15,16,21,22)         80.5632         estimate D2E/DX2                !
 ! D91   D(17,16,21,20)        -33.6811         estimate D2E/DX2                !
 ! D92   D(17,16,21,22)       -156.5332         estimate D2E/DX2                !
 ! D93   D(16,17,18,19)        169.2102         estimate D2E/DX2                !
 ! D94   D(16,17,18,20)        -10.789          estimate D2E/DX2                !
 ! D95   D(17,18,20,21)        -10.8128         estimate D2E/DX2                !
 ! D96   D(19,18,20,21)        169.188          estimate D2E/DX2                !
 ! D97   D(18,20,21,16)         27.7292         estimate D2E/DX2                !
 ! D98   D(18,20,21,22)        149.0934         estimate D2E/DX2                !
 ! D99   D(16,21,22,23)        -91.7232         estimate D2E/DX2                !
 ! D100  D(16,21,22,27)         88.2769         estimate D2E/DX2                !
 ! D101  D(20,21,22,23)        151.7264         estimate D2E/DX2                !
 ! D102  D(20,21,22,27)        -28.2735         estimate D2E/DX2                !
 ! D103  D(21,22,23,24)        179.9998         estimate D2E/DX2                !
 ! D104  D(21,22,23,46)         -0.0007         estimate D2E/DX2                !
 ! D105  D(27,22,23,24)         -0.0003         estimate D2E/DX2                !
 ! D106  D(27,22,23,46)        179.9992         estimate D2E/DX2                !
 ! D107  D(21,22,27,26)        180.0            estimate D2E/DX2                !
 ! D108  D(21,22,27,50)          0.0003         estimate D2E/DX2                !
 ! D109  D(23,22,27,26)          0.0001         estimate D2E/DX2                !
 ! D110  D(23,22,27,50)       -179.9996         estimate D2E/DX2                !
 ! D111  D(22,23,24,25)          0.0004         estimate D2E/DX2                !
 ! D112  D(22,23,24,47)       -179.9986         estimate D2E/DX2                !
 ! D113  D(46,23,24,25)       -179.999          estimate D2E/DX2                !
 ! D114  D(46,23,24,47)          0.0019         estimate D2E/DX2                !
 ! D115  D(23,24,25,26)         -0.0004         estimate D2E/DX2                !
 ! D116  D(23,24,25,48)        179.9989         estimate D2E/DX2                !
 ! D117  D(47,24,25,26)        179.9986         estimate D2E/DX2                !
 ! D118  D(47,24,25,48)         -0.002          estimate D2E/DX2                !
 ! D119  D(24,25,26,27)          0.0003         estimate D2E/DX2                !
 ! D120  D(24,25,26,49)       -179.9998         estimate D2E/DX2                !
 ! D121  D(48,25,26,27)       -179.9991         estimate D2E/DX2                !
 ! D122  D(48,25,26,49)          0.0009         estimate D2E/DX2                !
 ! D123  D(25,26,27,22)         -0.0001         estimate D2E/DX2                !
 ! D124  D(25,26,27,50)        179.9996         estimate D2E/DX2                !
 ! D125  D(49,26,27,22)        179.9999         estimate D2E/DX2                !
 ! D126  D(49,26,27,50)         -0.0004         estimate D2E/DX2                !
 --------------------------------------------------------------------------------
 Trust Radius=3.00D-01 FncErr=1.00D-07 GrdErr=1.00D-06 EigMax=2.50D+02 EigMin=1.00D-04
 Number of steps in this run=    282 maximum allowed number of steps=    306.
 GradGradGradGradGradGradGradGradGradGradGradGradGradGradGradGradGradGrad

 Stoichiometry    C22H23N5O
 Framework group  C1[X(C22H23N5O)]
 Deg. of freedom   147
 Full point group                 C1      NOp   1
 Largest Abelian subgroup         C1      NOp   1
 Largest concise Abelian subgroup C1      NOp   1
                         Standard orientation:                         
 ---------------------------------------------------------------------
 Center     Atomic      Atomic             Coordinates (Angstroms)
 Number     Number       Type             X           Y           Z
 ---------------------------------------------------------------------
      1          6           0        2.668105    4.487326    0.745660
      2          6           0        2.535926    2.976638    0.477403
      3          6           0        3.630614    2.128416    0.692196
      4          6           0        3.510297    0.753651    0.448266
      5          6           0        4.713244   -0.178465    0.684328
      6          6           0        2.295276    0.227140   -0.010467
      7          6           0        2.162780   -1.283597   -0.278229
      8          6           0        0.989636   -1.794793   -0.726096
      9          7           0        0.765699   -3.123802   -0.760840
     10          6           0       -0.484480   -3.617843   -1.355712
     11          6           0        1.639975   -4.013817   -0.249803
     12          6           0        2.849979   -3.628473    0.225151
     13          6           0        3.357964   -2.211409   -0.049598
     14          6           0        1.200711    1.075391   -0.225558
     15          6           0       -0.134250    0.496740   -0.730179
     16          7           0       -1.245796    1.313336   -0.221767
     17          7           0       -1.217164    2.643927   -0.654556
     18          6           0       -2.494214    3.029496   -0.724155
     19          8           0       -2.929251    4.378783   -0.911442
     20          7           0       -3.308056    1.978115   -0.594284
     21          7           0       -2.486952    0.848346   -0.686089
     22          6           0       -2.964388   -0.300927    0.096282
     23          6           0       -2.654337   -1.604781   -0.313315
     24          6           0       -3.109478   -2.700439    0.432530
     25          6           0       -3.874678   -2.492244    1.587969
     26          6           0       -4.184726   -1.188390    1.997563
     27          6           0       -3.729580   -0.092731    1.251716
     28          6           0        1.320972    2.450120    0.018493
     29          1           0        3.381062    4.649818    1.526806
     30          1           0        2.996643    4.980388   -0.145321
     31          1           0        1.718446    4.881402    1.041892
     32          1           0        4.558293    2.530443    1.042450
     33          1           0        5.621411    0.361494    0.515283
     34          1           0        4.693998   -0.537351    1.692163
     35          1           0        4.660137   -1.007174    0.009551
     36          1           0        0.219518   -1.127108   -1.051704
     37          1           0       -1.254494   -2.886225   -1.226414
     38          1           0       -0.335710   -3.798368   -2.399824
     39          1           0       -0.773241   -4.528537   -0.873888
     40          1           0        1.368686   -5.048097   -0.210153
     41          1           0        3.451093   -4.315217    0.783673
     42          1           0        3.941966   -1.862931    0.776482
     43          1           0        3.962112   -2.223900   -0.932627
     44          1           0       -0.145205    0.505948   -1.800082
     45          1           0       -0.241749   -0.508962   -0.381021
     46          1           0       -2.070102   -1.763742   -1.195529
     47          1           0       -2.872732   -3.695958    0.119810
     48          1           0       -4.222204   -3.328800    2.157432
     49          1           0       -4.768971   -1.029428    2.879769
     50          1           0       -3.966311    0.902787    1.564439
     51          1           0        0.485164    3.097737   -0.145571
 ---------------------------------------------------------------------
 Rotational constants (GHZ):           0.1994047           0.1670214           0.0997342
 Standard basis: 6-31G (6D, 7F)
 There are   298 symmetry adapted cartesian basis functions of A   symmetry.
 There are   298 symmetry adapted basis functions of A   symmetry.
   298 basis functions,   708 primitive gaussians,   298 cartesian basis functions
    99 alpha electrons       99 beta electrons
       nuclear repulsion energy      2584.8819246397 Hartrees.
 NAtoms=   51 NActive=   51 NUniq=   51 SFac= 1.00D+00 NAtFMM=   60 NAOKFM=F Big=F
 Integral buffers will be    131072 words long.
 Raffenetti 2 integral format.
 Two-electron integral symmetry is turned on.
 One-electron integrals computed using PRISM.
 NBasis=   298 RedAO= T EigKep=  4.02D-04  NBF=   298
 NBsUse=   298 1.00D-06 EigRej= -1.00D+00 NBFU=   298
 ExpMin= 1.61D-01 ExpMax= 5.48D+03 ExpMxC= 8.25D+02 IAcc=3 IRadAn=         5 AccDes= 0.00D+00
 Harris functional with IExCor=  402 and IRadAn=       5 diagonalized for initial guess.
 HarFok:  IExCor=  402 AccDes= 0.00D+00 IRadAn=         5 IDoV= 1 UseB2=F ITyADJ=14
 ICtDFT=  3500011 ScaDFX=  1.000000  1.000000  1.000000  1.000000
 FoFCou: FMM=F IPFlag=           0 FMFlag=      100000 FMFlg1=           0
         NFxFlg=           0 DoJE=T BraDBF=F KetDBF=T FulRan=T
         wScrn=  0.000000 ICntrl=       500 IOpCl=  0 I1Cent=   200000004 NGrid=           0
         NMat0=    1 NMatS0=      1 NMatT0=    0 NMatD0=    1 NMtDS0=    0 NMtDT0=    0
 Petite list used in FoFCou.
 Requested convergence on RMS density matrix=1.00D-08 within 128 cycles.
 Requested convergence on MAX density matrix=1.00D-06.
 Requested convergence on             energy=1.00D-06.
 No special actions if energy rises.
 Integral accuracy reduced to 1.0D-05 until final iterations.
 EnCoef did     3 forward-backward iterations
 EnCoef did     6 forward-backward iterations
 EnCoef did     2 forward-backward iterations
 Initial convergence to 1.0D-05 achieved.  Increase integral accuracy.
 SCF Done:  E(RB3LYP) =  -1200.43762541     A.U. after   26 cycles
            NFock= 26  Conv=0.98D-08     -V/T= 2.0041

 **********************************************************************

            Population analysis using the SCF Density.

 **********************************************************************

 Orbital symmetries:
       Occupied  (A) (A) (A) (A) (A) (A) (A) (A) (A) (A) (A) (A)
                 (A) (A) (A) (A) (A) (A) (A) (A) (A) (A) (A) (A)
                 (A) (A) (A) (A) (A) (A) (A) (A) (A) (A) (A) (A)
                 (A) (A) (A) (A) (A) (A) (A) (A) (A) (A) (A) (A)
                 (A) (A) (A) (A) (A) (A) (A) (A) (A) (A) (A) (A)
                 (A) (A) (A) (A) (A) (A) (A) (A) (A) (A) (A) (A)
                 (A) (A) (A) (A) (A) (A) (A) (A) (A) (A) (A) (A)
                 (A) (A) (A) (A) (A) (A) (A) (A) (A) (A) (A) (A)
                 (A) (A) (A)
       Virtual   (A) (A) (A) (A) (A) (A) (A) (A) (A) (A) (A) (A)
                 (A) (A) (A) (A) (A) (A) (A) (A) (A) (A) (A) (A)
                 (A) (A) (A) (A) (A) (A) (A) (A) (A) (A) (A) (A)
                 (A) (A) (A) (A) (A) (A) (A) (A) (A) (A) (A) (A)
                 (A) (A) (A) (A) (A) (A) (A) (A) (A) (A) (A) (A)
                 (A) (A) (A) (A) (A) (A) (A) (A) (A) (A) (A) (A)
                 (A) (A) (A) (A) (A) (A) (A) (A) (A) (A) (A) (A)
                 (A) (A) (A) (A) (A) (A) (A) (A) (A) (A) (A) (A)
                 (A) (A) (A) (A) (A) (A) (A) (A) (A) (A) (A) (A)
                 (A) (A) (A) (A) (A) (A) (A) (A) (A) (A) (A) (A)
                 (A) (A) (A) (A) (A) (A) (A) (A) (A) (A) (A) (A)
                 (A) (A) (A) (A) (A) (A) (A) (A) (A) (A) (A) (A)
                 (A) (A) (A) (A) (A) (A) (A) (A) (A) (A) (A) (A)
                 (A) (A) (A) (A) (A) (A) (A) (A) (A) (A) (A) (A)
                 (A) (A) (A) (A) (A) (A) (A) (A) (A) (A) (A) (A)
                 (A) (A) (A) (A) (A) (A) (A) (A) (A) (A) (A) (A)
                 (A) (A) (A) (A) (A) (A) (A)
 The electronic state is 1-A.
 Alpha  occ. eigenvalues --  -19.06724 -14.50062 -14.49515 -14.41005 -14.40754
 Alpha  occ. eigenvalues --  -14.38248 -10.29189 -10.28051 -10.25260 -10.23793
 Alpha  occ. eigenvalues --  -10.23256 -10.23149 -10.23083 -10.22871 -10.22727
 Alpha  occ. eigenvalues --  -10.22006 -10.21510 -10.20482 -10.20047 -10.19972
 Alpha  occ. eigenvalues --  -10.19432 -10.18798 -10.18102 -10.17606 -10.17605
 Alpha  occ. eigenvalues --  -10.16476 -10.16178 -10.16098  -1.19510  -1.00136
 Alpha  occ. eigenvalues --   -0.99848  -0.97580  -0.90095  -0.87972  -0.86430
 Alpha  occ. eigenvalues --   -0.83078  -0.82521  -0.80391  -0.79723  -0.78634
 Alpha  occ. eigenvalues --   -0.77279  -0.75248  -0.74317  -0.71238  -0.70744
 Alpha  occ. eigenvalues --   -0.68999  -0.66768  -0.66074  -0.64847  -0.63720
 Alpha  occ. eigenvalues --   -0.63363  -0.60388  -0.59739  -0.58237  -0.56184
 Alpha  occ. eigenvalues --   -0.54894  -0.53952  -0.52478  -0.51866  -0.51114
 Alpha  occ. eigenvalues --   -0.49950  -0.49490  -0.48899  -0.47998  -0.47568
 Alpha  occ. eigenvalues --   -0.46471  -0.46136  -0.45339  -0.44811  -0.43412
 Alpha  occ. eigenvalues --   -0.42771  -0.41988  -0.41717  -0.41584  -0.41046
 Alpha  occ. eigenvalues --   -0.40539  -0.40373  -0.39390  -0.39243  -0.38558
 Alpha  occ. eigenvalues --   -0.37596  -0.37496  -0.36745  -0.36311  -0.35847
 Alpha  occ. eigenvalues --   -0.34888  -0.34226  -0.32876  -0.32411  -0.30879
 Alpha  occ. eigenvalues --   -0.30226  -0.29473  -0.28570  -0.27703  -0.24360
 Alpha  occ. eigenvalues --   -0.23431  -0.20383  -0.19729  -0.17656
 Alpha virt. eigenvalues --   -0.15375  -0.05125  -0.04440  -0.02699   0.00067
 Alpha virt. eigenvalues --    0.02746   0.04019   0.05413   0.05587   0.07733
 Alpha virt. eigenvalues --    0.08651   0.09374   0.10244   0.10523   0.11125
 Alpha virt. eigenvalues --    0.11649   0.11937   0.12219   0.12754   0.13442
 Alpha virt. eigenvalues --    0.13893   0.14250   0.15028   0.15182   0.15549
 Alpha virt. eigenvalues --    0.15796   0.16880   0.16965   0.17448   0.17887
 Alpha virt. eigenvalues --    0.18289   0.18641   0.20066   0.20254   0.20474
 Alpha virt. eigenvalues --    0.21384   0.21921   0.23364   0.23649   0.23944
 Alpha virt. eigenvalues --    0.24782   0.25959   0.26123   0.26694   0.28538
 Alpha virt. eigenvalues --    0.29111   0.30160   0.30258   0.31538   0.31960
 Alpha virt. eigenvalues --    0.33314   0.34938   0.36649   0.38072   0.38851
 Alpha virt. eigenvalues --    0.40367   0.40983   0.41782   0.43758   0.44982
 Alpha virt. eigenvalues --    0.47017   0.48233   0.48643   0.49387   0.49810
 Alpha virt. eigenvalues --    0.51591   0.51708   0.52127   0.53201   0.54465
 Alpha virt. eigenvalues --    0.54729   0.55193   0.55700   0.56258   0.56692
 Alpha virt. eigenvalues --    0.57256   0.57720   0.57770   0.58015   0.58714
 Alpha virt. eigenvalues --    0.59160   0.59624   0.59811   0.60492   0.60824
 Alpha virt. eigenvalues --    0.61260   0.61365   0.61545   0.61929   0.62527
 Alpha virt. eigenvalues --    0.62989   0.63165   0.63490   0.64110   0.64828
 Alpha virt. eigenvalues --    0.65307   0.66336   0.67449   0.67472   0.67720
 Alpha virt. eigenvalues --    0.69058   0.70893   0.71997   0.72468   0.72716
 Alpha virt. eigenvalues --    0.73469   0.74806   0.75427   0.76694   0.77596
 Alpha virt. eigenvalues --    0.78017   0.78733   0.79613   0.80654   0.81075
 Alpha virt. eigenvalues --    0.81555   0.82021   0.82847   0.83797   0.84835
 Alpha virt. eigenvalues --    0.85335   0.85776   0.86326   0.86832   0.87362
 Alpha virt. eigenvalues --    0.88302   0.89761   0.90233   0.90601   0.91179
 Alpha virt. eigenvalues --    0.91537   0.93008   0.93670   0.94421   0.94589
 Alpha virt. eigenvalues --    0.96206   0.96802   0.97886   0.98490   0.98533
 Alpha virt. eigenvalues --    0.98956   0.99423   0.99909   1.00362   1.01471
 Alpha virt. eigenvalues --    1.01834   1.03083   1.03889   1.04722   1.05456
 Alpha virt. eigenvalues --    1.05579   1.08074   1.08110   1.09553   1.09926
 Alpha virt. eigenvalues --    1.11852   1.12640   1.13847   1.14539   1.14941
 Alpha virt. eigenvalues --    1.15672   1.16870   1.17022   1.19277   1.20097
 Alpha virt. eigenvalues --    1.21268   1.23267   1.24305   1.25755   1.26314
 Alpha virt. eigenvalues --    1.27953   1.29574   1.30743   1.33013   1.33523
 Alpha virt. eigenvalues --    1.36160   1.39515   1.40262   1.42735   1.42859
 Alpha virt. eigenvalues --    1.45720   1.46214   1.50126   1.51066   1.53200
 Alpha virt. eigenvalues --    1.53286   1.54956   1.57131   1.60962   1.64948
 Alpha virt. eigenvalues --    1.68059   1.76213   1.78283   1.85079   1.88011
 Alpha virt. eigenvalues --    1.95735   1.96007   2.02533   2.04849
          Condensed to atoms (all electrons):
 Mulliken charges:
               1
     1  C   -0.468369
     2  C    0.079021
     3  C   -0.180488
     4  C    0.054324
     5  C   -0.523018
     6  C    0.008179
     7  C    0.107042
     8  C    0.093030
     9  N   -0.629767
    10  C   -0.218098
    11  C    0.127497
    12  C   -0.165539
    13  C   -0.407620
    14  C    0.025406
    15  C   -0.181079
    16  N   -0.211828
    17  N   -0.160139
    18  C    0.455567
    19  O   -0.523599
    20  N   -0.113079
    21  N   -0.300378
    22  C    0.201283
    23  C   -0.094905
    24  C   -0.139114
    25  C   -0.100790
    26  C   -0.134863
    27  C   -0.066640
    28  C   -0.156727
    29  H    0.140827
    30  H    0.160674
    31  H    0.159499
    32  H    0.115748
    33  H    0.129957
    34  H    0.165234
    35  H    0.192308
    36  H    0.100971
    37  H    0.092869
    38  H    0.167298
    39  H    0.156984
    40  H    0.136613
    41  H    0.113080
    42  H    0.183102
    43  H    0.171331
    44  H    0.209997
    45  H    0.196747
    46  H    0.184987
    47  H    0.139368
    48  H    0.146047
    49  H    0.154082
    50  H    0.183369
    51  H    0.223601
 Sum of Mulliken charges =  -0.00000
 Mulliken charges with hydrogens summed into heavy atoms:
               1
     1  C   -0.007369
     2  C    0.079021
     3  C   -0.064740
     4  C    0.054324
     5  C   -0.035519
     6  C    0.008179
     7  C    0.107042
     8  C    0.194001
     9  N   -0.629767
    10  C    0.199052
    11  C    0.264109
    12  C   -0.052459
    13  C   -0.053188
    14  C    0.025406
    15  C    0.225665
    16  N   -0.211828
    17  N   -0.160139
    18  C    0.455567
    19  O   -0.523599
    20  N   -0.113079
    21  N   -0.300378
    22  C    0.201283
    23  C    0.090082
    24  C    0.000254
    25  C    0.045257
    26  C    0.019219
    27  C    0.116729
    28  C    0.066874
 Electronic spatial extent (au):  <R**2>=          10740.6611
 Charge=             -0.0000 electrons
 Dipole moment (field-independent basis, Debye):
    X=              2.2291    Y=            -11.3138    Z=              2.0176  Tot=             11.7065
 Quadrupole moment (field-independent basis, Debye-Ang):
   XX=           -167.6983   YY=           -184.3584   ZZ=           -160.7080
   XY=             35.4760   XZ=            -10.5664   YZ=             10.7325
 Traceless Quadrupole moment (field-independent basis, Debye-Ang):
   XX=              3.2232   YY=            -13.4368   ZZ=             10.2136
   XY=             35.4760   XZ=            -10.5664   YZ=             10.7325
 Octapole moment (field-independent basis, Debye-Ang**2):
  XXX=             61.7395  YYY=           -226.8729  ZZZ=              1.0760  XYY=            103.2281
  XXY=            -99.8743  XXZ=             79.2352  XZZ=            -27.3456  YZZ=            -11.2549
  YYZ=             43.2822  XYZ=            -19.8476
 Hexadecapole moment (field-independent basis, Debye-Ang**3):
 XXXX=          -7613.2683 YYYY=          -6604.3467 ZZZZ=           -812.6826 XXXY=            333.1244
 XXXZ=           -205.2017 YYYX=            673.6730 YYYZ=            190.2339 ZZZX=            -50.3644
 ZZZY=             -9.0465 XXYY=          -2550.2871 XXZZ=          -1314.5538 YYZZ=          -1192.7787
 XXYZ=             32.2054 YYXZ=           -112.1759 ZZXY=             41.9979
 N-N= 2.584881924640D+03 E-N=-7.958778828639D+03  KE= 1.195573668455D+03
 Calling FoFJK, ICntrl=      2127 FMM=F ISym2X=0 I1Cent= 0 IOpClX= 0 NMat=1 NMatS=1 NMatT=0.
 ***** Axes restored to original set *****
 -------------------------------------------------------------------
 Center     Atomic                   Forces (Hartrees/Bohr)
 Number     Number              X              Y              Z
 -------------------------------------------------------------------
      1        6          -0.032074826   -0.015294751    0.003439870
      2        6           0.014145554    0.006592918    0.002611722
      3        6          -0.017087308    0.004066182   -0.010267245
      4        6           0.008966568   -0.012837452    0.012180069
      5        6           0.040838404    0.014844236   -0.026419636
      6        6          -0.044406818   -0.026815673   -0.000154483
      7        6           0.041057246    0.017741074    0.003167835
      8        6           0.013948846   -0.030925416    0.009060293
      9        7          -0.042094861    0.009673853   -0.037267420
     10        6           0.013849128   -0.012439485    0.008847560
     11        6           0.012041217   -0.027160677    0.045638757
     12        6           0.001063713    0.008916144   -0.020899016
     13        6          -0.065818380    0.028495464    0.005802784
     14        6          -0.001133061    0.012532143   -0.007430472
     15        6           0.059272337    0.036522688    0.027540975
     16        7           0.050766344   -0.052859055   -0.059039073
     17        7           0.000789374   -0.021015970    0.050154499
     18        6           0.120665131    0.112382696   -0.093354435
     19        8          -0.083152721   -0.076318793    0.063904816
     20        7          -0.075697879   -0.012471493   -0.028395502
     21        7          -0.025754675    0.083862715    0.036482025
     22        6          -0.018030004    0.000422259   -0.005127029
     23        6           0.003438117    0.019650902   -0.001135592
     24        6           0.009276603    0.011840466   -0.000511881
     25        6           0.009447091   -0.002752945   -0.006712632
     26        6           0.003737428   -0.014024806   -0.006985316
     27        6          -0.006184835   -0.003463401    0.002332446
     28        6           0.007986046   -0.014350750    0.015577875
     29        1           0.010785167    0.000488438    0.013552640
     30        1           0.013146101   -0.005517991   -0.012465803
     31        1           0.000642782    0.016042621   -0.005125052
     32        1           0.008525146   -0.003908412    0.006928564
     33        1           0.018088556   -0.004824972    0.005424437
     34        1          -0.003062375    0.002341762    0.019514185
     35        1           0.040454191   -0.011122763    0.001994024
     36        1          -0.040158298   -0.067537141    0.005539553
     37        1          -0.004044599   -0.009063630    0.001940076
     38        1          -0.005197809   -0.011856900   -0.015982718
     39        1          -0.014316085    0.000402353    0.007179216
     40        1          -0.012656346    0.005874088   -0.000994158
     41        1          -0.001705474   -0.008100520    0.006867503
     42        1          -0.033898763    0.000681564    0.006308224
     43        1           0.008710784   -0.021464078   -0.006427309
     44        1          -0.003218593   -0.007134142   -0.018325094
     45        1           0.016477173    0.063932700    0.004332430
     46        1           0.004783249    0.006612652   -0.011715208
     47        1          -0.006367807   -0.007043455    0.000680401
     48        1          -0.009089559    0.001407221    0.005260639
     49        1          -0.000670239    0.009300490    0.004072786
     50        1           0.007089112    0.006445402   -0.002688295
     51        1           0.005829906   -0.000768360    0.001087167
 -------------------------------------------------------------------
 Cartesian Forces:  Max     0.120665131 RMS     0.029073313

 GradGradGradGradGradGradGradGradGradGradGradGradGradGradGradGradGradGrad
 Berny optimization.
 FormGI is forming the generalized inverse of G from B-inverse, IUseBI=4.
 Internal  Forces:  Max     0.282367273 RMS     0.050172911
 Search for a local minimum.
 Step number   1 out of a maximum of  282
 All quantities printed in internal units (Hartrees-Bohrs-Radians)
 Mixed Optimization -- RFO/linear search
 Second derivative matrix not updated -- first step.
 ITU=  0
     Eigenvalues ---    0.00237   0.00237   0.00237   0.00237   0.00697
     Eigenvalues ---    0.00766   0.00766   0.00766   0.01007   0.01284
     Eigenvalues ---    0.01300   0.01343   0.01365   0.01535   0.01669
     Eigenvalues ---    0.01763   0.01803   0.01988   0.02070   0.02070
     Eigenvalues ---    0.02070   0.02070   0.02070   0.02070   0.02070
     Eigenvalues ---    0.02070   0.02070   0.02070   0.02070   0.02070
     Eigenvalues ---    0.02070   0.02139   0.02432   0.02527   0.02540
     Eigenvalues ---    0.02549   0.04381   0.04862   0.05047   0.05268
     Eigenvalues ---    0.06518   0.06814   0.07243   0.07243   0.07243
     Eigenvalues ---    0.07243   0.07537   0.07537   0.09258   0.09365
     Eigenvalues ---    0.10526   0.12902   0.15075   0.15999   0.15999
     Eigenvalues ---    0.16000   0.16000   0.16000   0.16000   0.16000
     Eigenvalues ---    0.16000   0.16000   0.16000   0.16000   0.16000
     Eigenvalues ---    0.16000   0.16000   0.16000   0.16000   0.16000
     Eigenvalues ---    0.16000   0.16000   0.17785   0.20857   0.21382
     Eigenvalues ---    0.22000   0.22000   0.22022   0.22804   0.23478
     Eigenvalues ---    0.23485   0.23493   0.23533   0.23791   0.24996
     Eigenvalues ---    0.24999   0.25000   0.25000   0.25000   0.25000
     Eigenvalues ---    0.25000   0.25000   0.25000   0.28518   0.28519
     Eigenvalues ---    0.28519   0.28520   0.28772   0.28882   0.35740
     Eigenvalues ---    0.35741   0.35742   0.37230   0.37230   0.37230
     Eigenvalues ---    0.37230   0.37230   0.37230   0.37230   0.37230
     Eigenvalues ---    0.37230   0.37230   0.37230   0.37230   0.37230
     Eigenvalues ---    0.37230   0.37230   0.37230   0.37230   0.37230
     Eigenvalues ---    0.37231   0.37231   0.37231   0.37231   0.37231
     Eigenvalues ---    0.40791   0.40989   0.41269   0.41459   0.41554
     Eigenvalues ---    0.41716   0.42209   0.44863   0.45387   0.45389
     Eigenvalues ---    0.45389   0.45389   0.45389   0.45390   0.45391
     Eigenvalues ---    0.45391   0.49200   0.52385   0.53817   0.53924
     Eigenvalues ---    0.55136   0.56730
 RFO step:  Lambda=-7.11051283D-01 EMin= 2.36625934D-03
 Linear search not attempted -- first point.
 Maximum step size (   0.300) exceeded in Quadratic search.
    -- Step size scaled by   0.379
 Iteration  1 RMS(Cart)=  0.32556122 RMS(Int)=  0.00825361
 Iteration  2 RMS(Cart)=  0.11279983 RMS(Int)=  0.00084470
 Iteration  3 RMS(Cart)=  0.00266940 RMS(Int)=  0.00013624
 Iteration  4 RMS(Cart)=  0.00000150 RMS(Int)=  0.00013624
 Iteration  5 RMS(Cart)=  0.00000000 RMS(Int)=  0.00013624
 Variable       Old X    -DE/DX   Delta X   Delta X   Delta X     New X
                                 (Linear)    (Quad)   (Total)
    R1        2.91018  -0.00857   0.00000  -0.00326  -0.00326   2.90692
    R2        2.02201   0.01701   0.00000   0.00595   0.00595   2.02796
    R3        2.02200   0.01857   0.00000   0.00650   0.00650   2.02850
    R4        2.02201   0.01649   0.00000   0.00577   0.00577   2.02778
    R5        2.64829  -0.07760   0.00000  -0.02678  -0.02698   2.62131
    R6        2.64827  -0.05935   0.00000  -0.02059  -0.02078   2.62749
    R7        2.64828  -0.01980   0.00000  -0.00669  -0.00671   2.64158
    R8        2.02200   0.01163   0.00000   0.00407   0.00407   2.02607
    R9        2.91021  -0.01035   0.00000  -0.00394  -0.00394   2.90626
   R10        2.64826   0.14828   0.00000   0.04955   0.04973   2.69800
   R11        2.02201   0.01875   0.00000   0.00657   0.00657   2.02857
   R12        2.02201   0.01905   0.00000   0.00667   0.00667   2.02868
   R13        2.02201  -0.02070   0.00000  -0.00725  -0.00725   2.01476
   R14        2.91017   0.17039   0.00000   0.06487   0.06487   2.97504
   R15        2.64823   0.22162   0.00000   0.07366   0.07387   2.72209
   R16        2.56208   0.06077   0.00000   0.01923   0.01936   2.58143
   R17        2.89170   0.04366   0.00000   0.01633   0.01646   2.90816
   R18        2.54771   0.07316   0.00000   0.02277   0.02276   2.57047
   R19        2.02201  -0.05416   0.00000  -0.01896  -0.01896   2.00305
   R20        2.77790  -0.00240   0.00000  -0.00085  -0.00085   2.77704
   R21        2.54773   0.00224   0.00000   0.00075   0.00062   2.54835
   R22        2.02201  -0.00969   0.00000  -0.00339  -0.00339   2.01862
   R23        2.02200   0.02002   0.00000   0.00701   0.00701   2.02901
   R24        2.02201   0.01600   0.00000   0.00560   0.00560   2.02761
   R25        2.56208  -0.05573   0.00000  -0.01765  -0.01778   2.54430
   R26        2.02201   0.01047   0.00000   0.00367   0.00367   2.02568
   R27        2.89172  -0.01412   0.00000  -0.00626  -0.00625   2.88547
   R28        2.02201   0.00988   0.00000   0.00346   0.00346   2.02547
   R29        2.02201  -0.01346   0.00000  -0.00471  -0.00471   2.01730
   R30        2.02200   0.02355   0.00000   0.00825   0.00825   2.03024
   R31        2.91018   0.02168   0.00000   0.00826   0.00826   2.91843
   R32        2.64825   0.02306   0.00000   0.00775   0.00776   2.65601
   R33        2.77786   0.06962   0.00000   0.02471   0.02471   2.80258
   R34        2.02200   0.01936   0.00000   0.00678   0.00678   2.02878
   R35        2.02201  -0.02437   0.00000  -0.00853  -0.00853   2.01348
   R36        2.64467  -0.00806   0.00000  -0.00255  -0.00254   2.64213
   R37        2.65389   0.08651   0.00000   0.02786   0.02785   2.68174
   R38        2.52430   0.05026   0.00000   0.01501   0.01503   2.53932
   R39        2.70231  -0.12970   0.00000  -0.04389  -0.04389   2.65843
   R40        2.52447   0.04147   0.00000   0.01234   0.01234   2.53681
   R41        2.64495  -0.01696   0.00000  -0.00561  -0.00563   2.63933
   R42        2.77788  -0.00525   0.00000  -0.00187  -0.00187   2.77602
   R43        2.64827  -0.02933   0.00000  -0.00965  -0.00965   2.63863
   R44        2.64824  -0.00231   0.00000  -0.00080  -0.00080   2.64744
   R45        2.64825  -0.00262   0.00000  -0.00090  -0.00090   2.64735
   R46        2.02201  -0.00005   0.00000  -0.00002  -0.00002   2.02199
   R47        2.64826  -0.00320   0.00000  -0.00099  -0.00099   2.64726
   R48        2.02201   0.00952   0.00000   0.00333   0.00333   2.02534
   R49        2.64827  -0.00161   0.00000  -0.00043  -0.00043   2.64784
   R50        2.02200   0.01059   0.00000   0.00371   0.00371   2.02571
   R51        2.64826  -0.00507   0.00000  -0.00160  -0.00160   2.64665
   R52        2.02201   0.01011   0.00000   0.00354   0.00354   2.02554
   R53        2.02200   0.00974   0.00000   0.00341   0.00341   2.02541
   R54        2.02201  -0.00069   0.00000  -0.00024  -0.00024   2.02176
    A1        1.91063   0.00334   0.00000   0.00147   0.00146   1.91209
    A2        1.91064   0.00368   0.00000   0.00159   0.00159   1.91223
    A3        1.91063   0.00337   0.00000   0.00147   0.00147   1.91210
    A4        1.91063  -0.00368   0.00000  -0.00161  -0.00161   1.90902
    A5        1.91063  -0.00273   0.00000  -0.00116  -0.00116   1.90947
    A6        1.91063  -0.00399   0.00000  -0.00175  -0.00176   1.90888
    A7        2.09439   0.00984   0.00000   0.00571   0.00591   2.10031
    A8        2.09440   0.00759   0.00000   0.00482   0.00503   2.09943
    A9        2.09439  -0.01743   0.00000  -0.01054  -0.01094   2.08345
   A10        2.09441   0.03575   0.00000   0.01210   0.01186   2.10627
   A11        2.09439  -0.01703   0.00000  -0.00568  -0.00557   2.08881
   A12        2.09439  -0.01872   0.00000  -0.00642  -0.00631   2.08808
   A13        2.09441  -0.18832   0.00000  -0.07485  -0.07494   2.01947
   A14        2.09436   0.06895   0.00000   0.02826   0.02841   2.12278
   A15        2.09441   0.11937   0.00000   0.04659   0.04649   2.14090
   A16        1.91063  -0.01270   0.00000  -0.00590  -0.00589   1.90474
   A17        1.91064   0.00925   0.00000   0.00426   0.00423   1.91487
   A18        1.91064   0.02088   0.00000   0.00923   0.00920   1.91984
   A19        1.91063  -0.00523   0.00000  -0.00255  -0.00255   1.90809
   A20        1.91063  -0.01616   0.00000  -0.00751  -0.00749   1.90314
   A21        1.91063   0.00396   0.00000   0.00247   0.00241   1.91304
   A22        2.09448  -0.12847   0.00000  -0.05231  -0.05252   2.04196
   A23        2.09441  -0.15329   0.00000  -0.05729  -0.05689   2.03752
   A24        2.09429   0.28176   0.00000   0.10960   0.10938   2.20367
   A25        2.09644   0.21797   0.00000   0.08607   0.08595   2.18239
   A26        2.09628  -0.09409   0.00000  -0.03708  -0.03719   2.05909
   A27        2.09045  -0.12397   0.00000  -0.04904  -0.04884   2.04160
   A28        2.12224   0.03602   0.00000   0.01627   0.01637   2.13861
   A29        2.08062   0.02295   0.00000   0.00972   0.00962   2.09023
   A30        2.08029  -0.05873   0.00000  -0.02586  -0.02596   2.05433
   A31        2.07487   0.03057   0.00000   0.01178   0.01183   2.08670
   A32        2.13327   0.01209   0.00000   0.00536   0.00526   2.13853
   A33        2.07491  -0.04250   0.00000  -0.01707  -0.01703   2.05788
   A34        1.91063   0.00322   0.00000   0.00141   0.00141   1.91204
   A35        1.91064   0.00601   0.00000   0.00263   0.00263   1.91327
   A36        1.91063  -0.00102   0.00000  -0.00046  -0.00046   1.91017
   A37        1.91063  -0.00347   0.00000  -0.00147  -0.00147   1.90916
   A38        1.91063  -0.00160   0.00000  -0.00072  -0.00072   1.90991
   A39        1.91063  -0.00314   0.00000  -0.00139  -0.00139   1.90924
   A40        2.12222  -0.01640   0.00000  -0.00793  -0.00817   2.11406
   A41        2.08030   0.00078   0.00000   0.00073   0.00083   2.08113
   A42        2.08062   0.01577   0.00000   0.00727   0.00737   2.08799
   A43        2.09044   0.00144   0.00000  -0.00129  -0.00131   2.08913
   A44        2.09650   0.00007   0.00000   0.00100   0.00101   2.09750
   A45        2.09622  -0.00158   0.00000   0.00025   0.00026   2.09648
   A46        1.90607   0.08395   0.00000   0.03312   0.03327   1.93934
   A47        1.92216  -0.02528   0.00000  -0.00891  -0.00874   1.91342
   A48        1.90157  -0.00516   0.00000  -0.00147  -0.00157   1.90000
   A49        1.92214  -0.04363   0.00000  -0.01918  -0.01931   1.90284
   A50        1.90160  -0.02346   0.00000  -0.00849  -0.00856   1.89304
   A51        1.91003   0.01401   0.00000   0.00513   0.00502   1.91505
   A52        2.09431   0.28237   0.00000   0.11047   0.11033   2.20464
   A53        2.09442  -0.01346   0.00000  -0.00338  -0.00317   2.09125
   A54        2.09446  -0.26890   0.00000  -0.10709  -0.10722   1.98724
   A55        1.91073  -0.05534   0.00000  -0.02305  -0.02306   1.88767
   A56        1.91058   0.02858   0.00000   0.01239   0.01225   1.92284
   A57        1.91063   0.02414   0.00000   0.01040   0.01029   1.92092
   A58        1.91061  -0.00614   0.00000  -0.00391  -0.00386   1.90675
   A59        1.91060  -0.00070   0.00000  -0.00143  -0.00139   1.90921
   A60        1.91065   0.00946   0.00000   0.00560   0.00548   1.91613
   A61        1.98858  -0.02532   0.00000  -0.01017  -0.01025   1.97833
   A62        1.94980   0.09209   0.00000   0.03988   0.03993   1.98973
   A63        1.80353  -0.01798   0.00000  -0.00677  -0.00682   1.79671
   A64        1.84521   0.01886   0.00000   0.00821   0.00822   1.85344
   A65        2.17732   0.00137   0.00000   0.00033   0.00033   2.17765
   A66        1.92856  -0.00250   0.00000  -0.00056  -0.00058   1.92799
   A67        2.17730   0.00113   0.00000   0.00023   0.00024   2.17754
   A68        1.84575  -0.00537   0.00000  -0.00190  -0.00194   1.84381
   A69        1.80238   0.02707   0.00000   0.01113   0.01112   1.81350
   A70        1.94973   0.03256   0.00000   0.01497   0.01507   1.96481
   A71        1.98846  -0.03446   0.00000  -0.01427  -0.01438   1.97408
   A72        2.09438  -0.00094   0.00000  -0.00029  -0.00029   2.09409
   A73        2.09440  -0.00477   0.00000  -0.00180  -0.00180   2.09260
   A74        2.09440   0.00571   0.00000   0.00209   0.00209   2.09649
   A75        2.09440   0.00213   0.00000   0.00070   0.00070   2.09509
   A76        2.09440  -0.01172   0.00000  -0.00499  -0.00499   2.08941
   A77        2.09439   0.00959   0.00000   0.00429   0.00429   2.09868
   A78        2.09439  -0.00110   0.00000  -0.00043  -0.00044   2.09395
   A79        2.09440   0.00046   0.00000   0.00018   0.00018   2.09458
   A80        2.09440   0.00064   0.00000   0.00026   0.00026   2.09465
   A81        2.09440  -0.00261   0.00000  -0.00087  -0.00087   2.09353
   A82        2.09439   0.00107   0.00000   0.00033   0.00033   2.09472
   A83        2.09440   0.00153   0.00000   0.00053   0.00053   2.09493
   A84        2.09440  -0.00091   0.00000  -0.00018  -0.00018   2.09422
   A85        2.09440   0.00164   0.00000   0.00060   0.00060   2.09500
   A86        2.09439  -0.00073   0.00000  -0.00043  -0.00043   2.09396
   A87        2.09439  -0.00323   0.00000  -0.00131  -0.00131   2.09308
   A88        2.09439  -0.00019   0.00000  -0.00013  -0.00013   2.09426
   A89        2.09441   0.00342   0.00000   0.00144   0.00144   2.09584
   A90        2.09438   0.07950   0.00000   0.03084   0.03066   2.12503
   A91        2.09442  -0.04558   0.00000  -0.01796  -0.01788   2.07653
   A92        2.09439  -0.03392   0.00000  -0.01288  -0.01281   2.08158
    D1       -0.52357   0.00133   0.00000   0.00068   0.00069  -0.52289
    D2        2.61803  -0.00071   0.00000  -0.00038  -0.00038   2.61764
    D3        1.57082   0.00113   0.00000   0.00058   0.00059   1.57141
    D4       -1.57076  -0.00091   0.00000  -0.00048  -0.00048  -1.57125
    D5       -2.61796   0.00056   0.00000   0.00031   0.00031  -2.61765
    D6        0.52364  -0.00148   0.00000  -0.00075  -0.00076   0.52288
    D7        3.14144   0.00859   0.00000   0.00442   0.00446  -3.13729
    D8       -0.00015  -0.00628   0.00000  -0.00327  -0.00313  -0.00328
    D9       -0.00016   0.01063   0.00000   0.00548   0.00552   0.00536
   D10        3.14144  -0.00424   0.00000  -0.00221  -0.00207   3.13937
   D11       -3.14155   0.00754   0.00000   0.00389   0.00392  -3.13763
   D12        0.00006  -0.01082   0.00000  -0.00561  -0.00546  -0.00540
   D13        0.00005   0.00550   0.00000   0.00282   0.00286   0.00291
   D14       -3.14153  -0.01286   0.00000  -0.00667  -0.00652   3.13514
   D15       -3.14157  -0.02880   0.00000  -0.01497  -0.01457   3.12704
   D16        0.00001  -0.01142   0.00000  -0.00588  -0.00578  -0.00577
   D17        0.00001  -0.01393   0.00000  -0.00728  -0.00698  -0.00697
   D18        3.14159   0.00345   0.00000   0.00182   0.00181  -3.13978
   D19       -0.52366   0.01813   0.00000   0.00966   0.00956  -0.51410
   D20        1.57074   0.00961   0.00000   0.00554   0.00542   1.57615
   D21       -2.61805   0.03291   0.00000   0.01682   0.01675  -2.60130
   D22        2.61795   0.00075   0.00000   0.00057   0.00067   2.61861
   D23       -1.57084  -0.00777   0.00000  -0.00355  -0.00348  -1.57432
   D24        0.52356   0.01553   0.00000   0.00773   0.00785   0.53141
   D25       -3.14132  -0.01910   0.00000  -0.00996  -0.00954   3.13233
   D26        0.00026  -0.00395   0.00000  -0.00205  -0.00219  -0.00193
   D27        0.00026  -0.00172   0.00000  -0.00086  -0.00012   0.00013
   D28       -3.14135   0.01342   0.00000   0.00705   0.00723  -3.13412
   D29       -3.13795   0.09736   0.00000   0.05199   0.05227  -3.08568
   D30       -0.00429   0.08355   0.00000   0.04405   0.04400   0.03971
   D31        0.00366   0.08222   0.00000   0.04408   0.04413   0.04778
   D32        3.13731   0.06841   0.00000   0.03614   0.03587  -3.11001
   D33        3.14118   0.04127   0.00000   0.02144   0.02191  -3.12009
   D34       -0.00037   0.02010   0.00000   0.01035   0.01028   0.00991
   D35       -0.00042   0.05641   0.00000   0.02935   0.03003   0.02961
   D36        3.14121   0.03524   0.00000   0.01826   0.01840  -3.12358
   D37       -2.94739  -0.01986   0.00000  -0.01044  -0.01081  -2.95820
   D38        0.18453   0.00937   0.00000   0.00510   0.00503   0.18955
   D39        0.20211  -0.00623   0.00000  -0.00259  -0.00267   0.19945
   D40       -2.94916   0.02301   0.00000   0.01296   0.01317  -2.93599
   D41        2.70633   0.00394   0.00000   0.00244   0.00205   2.70838
   D42        0.59348   0.02020   0.00000   0.01063   0.01037   0.60386
   D43       -1.50162   0.02161   0.00000   0.01067   0.01049  -1.49113
   D44       -0.44317  -0.00826   0.00000  -0.00485  -0.00493  -0.44809
   D45       -2.55602   0.00800   0.00000   0.00333   0.00340  -2.55262
   D46        1.63207   0.00941   0.00000   0.00338   0.00351   1.63558
   D47       -3.05823   0.01484   0.00000   0.00860   0.00870  -3.04953
   D48        0.10178   0.00530   0.00000   0.00405   0.00405   0.10584
   D49        0.09304  -0.01483   0.00000  -0.00713  -0.00702   0.08602
   D50       -3.03013  -0.02438   0.00000  -0.01169  -0.01166  -3.04179
   D51       -0.51467  -0.00518   0.00000  -0.00244  -0.00245  -0.51713
   D52        1.57972  -0.00378   0.00000  -0.00176  -0.00177   1.57795
   D53       -2.60906  -0.00456   0.00000  -0.00214  -0.00215  -2.61122
   D54        2.60912   0.00460   0.00000   0.00219   0.00220   2.61132
   D55       -1.57967   0.00599   0.00000   0.00287   0.00288  -1.57679
   D56        0.51473   0.00521   0.00000   0.00249   0.00250   0.51723
   D57       -0.10172  -0.01868   0.00000  -0.00908  -0.00890  -0.11062
   D58        3.03019   0.00034   0.00000  -0.00059  -0.00050   3.02970
   D59        3.05830  -0.02896   0.00000  -0.01393  -0.01376   3.04454
   D60       -0.09297  -0.00995   0.00000  -0.00544  -0.00536  -0.09833
   D61       -0.20224   0.01387   0.00000   0.00558   0.00567  -0.19657
   D62        2.94768   0.02438   0.00000   0.01046   0.01043   2.95811
   D63        2.94904  -0.00507   0.00000  -0.00288  -0.00273   2.94630
   D64       -0.18423   0.00544   0.00000   0.00200   0.00203  -0.18220
   D65        0.44323   0.02940   0.00000   0.01272   0.01266   0.45589
   D66        2.55609   0.02431   0.00000   0.01078   0.01056   2.56665
   D67       -1.63199   0.00035   0.00000   0.00012   0.00005  -1.63194
   D68       -2.70668   0.01890   0.00000   0.00784   0.00791  -2.69878
   D69       -0.59383   0.01381   0.00000   0.00591   0.00581  -0.58802
   D70        1.50128  -0.01015   0.00000  -0.00475  -0.00470   1.49658
   D71        2.61793   0.02390   0.00000   0.01270   0.01274   2.63066
   D72       -1.57087   0.00001   0.00000   0.00139   0.00132  -1.56955
   D73        0.52351   0.04387   0.00000   0.02220   0.02231   0.54583
   D74       -0.52371   0.04508   0.00000   0.02379   0.02378  -0.49993
   D75        1.57068   0.02119   0.00000   0.01247   0.01235   1.58304
   D76       -2.61812   0.06505   0.00000   0.03329   0.03335  -2.58477
   D77        0.00022  -0.02084   0.00000  -0.01073  -0.01091  -0.01070
   D78       -3.14139  -0.00249   0.00000  -0.00124  -0.00151   3.14028
   D79       -3.14134  -0.04203   0.00000  -0.02182  -0.02117   3.12068
   D80        0.00024  -0.02367   0.00000  -0.01233  -0.01176  -0.01152
   D81        1.07632  -0.00524   0.00000  -0.00261  -0.00256   1.07376
   D82        3.11210   0.01893   0.00000   0.00969   0.00967   3.12177
   D83       -1.01805  -0.00260   0.00000  -0.00127  -0.00128  -1.01934
   D84        1.01773   0.02156   0.00000   0.01103   0.01094   1.02867
   D85       -3.11243  -0.01000   0.00000  -0.00486  -0.00479  -3.11722
   D86       -1.07665   0.01417   0.00000   0.00744   0.00744  -1.06921
   D87        2.60309   0.05230   0.00000   0.02277   0.02272   2.62581
   D88        0.48398  -0.03457   0.00000  -0.01597  -0.01594   0.46804
   D89       -2.73292   0.01725   0.00000   0.00846   0.00845  -2.72447
   D90        1.40609   0.02424   0.00000   0.01061   0.01047   1.41656
   D91       -0.58785   0.02520   0.00000   0.01350   0.01356  -0.57428
   D92       -2.73202   0.03219   0.00000   0.01565   0.01558  -2.71644
   D93        2.95327   0.00512   0.00000   0.00331   0.00338   2.95665
   D94       -0.18830   0.00869   0.00000   0.00487   0.00497  -0.18333
   D95       -0.18872   0.00103   0.00000   0.00148   0.00152  -0.18720
   D96        2.95289   0.00460   0.00000   0.00304   0.00311   2.95600
   D97        0.48397  -0.01986   0.00000  -0.00999  -0.01002   0.47395
   D98        2.60217   0.01908   0.00000   0.00791   0.00781   2.60998
   D99       -1.60087   0.00211   0.00000  -0.00035  -0.00042  -1.60129
   D100       1.54072   0.00747   0.00000   0.00244   0.00237   1.54309
   D101       2.64812  -0.03223   0.00000  -0.01550  -0.01543   2.63269
   D102      -0.49347  -0.02686   0.00000  -0.01271  -0.01264  -0.50611
   D103       3.14159   0.00243   0.00000   0.00127   0.00127  -3.14033
   D104      -0.00001  -0.00164   0.00000  -0.00084  -0.00083  -0.00085
   D105      -0.00000  -0.00293   0.00000  -0.00153  -0.00153  -0.00153
   D106       3.14158  -0.00700   0.00000  -0.00363  -0.00363   3.13795
   D107       3.14159  -0.00195   0.00000  -0.00102  -0.00102   3.14057
   D108       0.00001  -0.00254   0.00000  -0.00133  -0.00133  -0.00132
   D109       0.00000   0.00341   0.00000   0.00177   0.00178   0.00178
   D110      -3.14159   0.00282   0.00000   0.00147   0.00147  -3.14012
   D111       0.00001   0.00065   0.00000   0.00034   0.00034   0.00035
   D112      -3.14157  -0.00055   0.00000  -0.00028  -0.00028   3.14133
   D113      -3.14158   0.00472   0.00000   0.00245   0.00245  -3.13912
   D114       0.00003   0.00351   0.00000   0.00182   0.00183   0.00186
   D115      -0.00001   0.00115   0.00000   0.00060   0.00060   0.00059
   D116       3.14157  -0.00029   0.00000  -0.00015  -0.00015   3.14143
   D117       3.14157   0.00235   0.00000   0.00122   0.00122  -3.14039
   D118      -0.00003   0.00091   0.00000   0.00047   0.00048   0.00044
   D119       0.00000  -0.00067   0.00000  -0.00035  -0.00035  -0.00035
   D120      -3.14159  -0.00125   0.00000  -0.00065  -0.00065   3.14095
   D121      -3.14158   0.00077   0.00000   0.00040   0.00040  -3.14118
   D122       0.00001   0.00019   0.00000   0.00010   0.00010   0.00011
   D123      -0.00000  -0.00161   0.00000  -0.00084  -0.00083  -0.00084
   D124       3.14159  -0.00102   0.00000  -0.00053  -0.00053   3.14106
   D125       3.14159  -0.00103   0.00000  -0.00054  -0.00054   3.14106
   D126      -0.00001  -0.00044   0.00000  -0.00023  -0.00023  -0.00024
         Item               Value     Threshold  Converged?
 Maximum Force            0.282367     0.000450     NO 
 RMS     Force            0.050173     0.000300     NO 
 Maximum Displacement     2.047292     0.001800     NO 
 RMS     Displacement     0.433737     0.001200     NO 
 Predicted change in Energy=-2.568857D-01
 GradGradGradGradGradGradGradGradGradGradGradGradGradGradGradGradGradGrad

 Stoichiometry    C22H23N5O
 Framework group  C1[X(C22H23N5O)]
 Deg. of freedom   147
 Full point group                 C1      NOp   1
 Largest Abelian subgroup         C1      NOp   1
 Largest concise Abelian subgroup C1      NOp   1
                         Standard orientation:                         
 ---------------------------------------------------------------------
 Center     Atomic      Atomic             Coordinates (Angstroms)
 Number     Number       Type             X           Y           Z
 ---------------------------------------------------------------------
      1          6           0        0.419995    4.975804    0.672875
      2          6           0        0.982777    3.563613    0.437744
      3          6           0        2.310918    3.282288    0.722421
      4          6           0        2.831104    2.002885    0.506661
      5          6           0        4.321137    1.823208    0.842433
      6          6           0        2.022909    0.942389   -0.003778
      7          6           0        2.723659   -0.451185   -0.216830
      8          6           0        2.125292   -1.556263   -0.752381
      9          7           0        2.703557   -2.787146   -0.724511
     10          6           0        2.056997   -3.907814   -1.421386
     11          6           0        3.852943   -3.033536   -0.063657
     12          6           0        4.557603   -2.035945    0.502927
     13          6           0        4.202605   -0.584834    0.187102
     14          6           0        0.644729    1.254594   -0.283239
     15          6           0       -0.425862    0.275238   -0.812173
     16          7           0       -1.748185    0.720594   -0.309595
     17          7           0       -2.107754    1.997320   -0.751774
     18          6           0       -3.450040    2.008290   -0.813571
     19          8           0       -4.234828    3.159520   -1.007997
     20          7           0       -3.937061    0.766579   -0.661709
     21          7           0       -2.832551   -0.084086   -0.746100
     22          6           0       -2.984572   -1.307289    0.053050
     23          6           0       -2.346557   -2.484078   -0.344139
     24          6           0       -2.491936   -3.651665    0.416238
     25          6           0       -3.278256   -3.638545    1.575535
     26          6           0       -3.919087   -2.457530    1.972821
     27          6           0       -3.772765   -1.291346    1.211152
     28          6           0        0.164124    2.556565   -0.061152
     29          1           0        0.944585    5.440838    1.485404
     30          1           0        0.545077    5.565099   -0.215581
     31          1           0       -0.623845    4.911077    0.912996
     32          1           0        2.947112    4.055661    1.105381
     33          1           0        4.829789    2.757205    0.696589
     34          1           0        4.427350    1.516850    1.865824
     35          1           0        4.753121    1.088193    0.202234
     36          1           0        1.176234   -1.468052   -1.216108
     37          1           0        0.999309   -3.758779   -1.433583
     38          1           0        2.420770   -3.963271   -2.430066
     39          1           0        2.282487   -4.823991   -0.910478
     40          1           0        4.208170   -4.042154    0.010941
     41          1           0        5.371848   -2.258972    1.163295
     42          1           0        4.394821    0.015808    1.048414
     43          1           0        4.817030   -0.254321   -0.629898
     44          1           0       -0.434926    0.281182   -1.885704
     45          1           0       -0.226551   -0.709918   -0.458615
     46          1           0       -1.748833   -2.489780   -1.231593
     47          1           0       -2.002195   -4.554736    0.110800
     48          1           0       -3.390109   -4.531594    2.157810
     49          1           0       -4.521538   -2.446119    2.859292
     50          1           0       -4.262683   -0.387254    1.513402
     51          1           0       -0.860730    2.778981   -0.272883
 ---------------------------------------------------------------------
 Rotational constants (GHZ):           0.1970140           0.1449290           0.0914793
 Standard basis: 6-31G (6D, 7F)
 There are   298 symmetry adapted cartesian basis functions of A   symmetry.
 There are   298 symmetry adapted basis functions of A   symmetry.
   298 basis functions,   708 primitive gaussians,   298 cartesian basis functions
    99 alpha electrons       99 beta electrons
       nuclear repulsion energy      2519.8183129016 Hartrees.
 NAtoms=   51 NActive=   51 NUniq=   51 SFac= 1.00D+00 NAtFMM=   60 NAOKFM=F Big=F
 Integral buffers will be    131072 words long.
 Raffenetti 2 integral format.
 Two-electron integral symmetry is turned on.
 One-electron integrals computed using PRISM.
 NBasis=   298 RedAO= T EigKep=  4.21D-04  NBF=   298
 NBsUse=   298 1.00D-06 EigRej= -1.00D+00 NBFU=   298
 Initial guess from the checkpoint file:  "/hpc/home/hpcmgac13/pbs.11098.admin1.x8z/Gau-1688072.chk"
 B after Tr=    -0.000000   -0.000000    0.000000
         Rot=    0.979512    0.015123    0.023445   -0.199445 Ang=  23.24 deg.
 ExpMin= 1.61D-01 ExpMax= 5.48D+03 ExpMxC= 8.25D+02 IAcc=3 IRadAn=         5 AccDes= 0.00D+00
 Harris functional with IExCor=  402 and IRadAn=       5 diagonalized for initial guess.
 HarFok:  IExCor=  402 AccDes= 0.00D+00 IRadAn=         5 IDoV= 1 UseB2=F ITyADJ=14
 ICtDFT=  3500011 ScaDFX=  1.000000  1.000000  1.000000  1.000000
 FoFCou: FMM=F IPFlag=           0 FMFlag=      100000 FMFlg1=           0
         NFxFlg=           0 DoJE=T BraDBF=F KetDBF=T FulRan=T
[...]
 ! D120  D(24,25,26,49)        179.3075         -DE/DX =    0.0                 !
 ! D121  D(48,25,26,27)        179.991          -DE/DX =    0.0                 !
 ! D122  D(48,25,26,49)         -0.0337         -DE/DX =    0.0                 !
 ! D123  D(25,26,27,22)          0.0172         -DE/DX =    0.0                 !
 ! D124  D(25,26,27,50)        179.4324         -DE/DX =    0.0                 !
 ! D125  D(49,26,27,22)       -179.9583         -DE/DX =    0.0                 !
 ! D126  D(49,26,27,50)         -0.5431         -DE/DX =    0.0                 !
 --------------------------------------------------------------------------------
 GradGradGradGradGradGradGradGradGradGradGradGradGradGradGradGradGradGrad

 Stoichiometry    C22H23N5O
 Framework group  C1[X(C22H23N5O)]
 Deg. of freedom   147
 Full point group                 C1      NOp   1
 Largest Abelian subgroup         C1      NOp   1
 Largest concise Abelian subgroup C1      NOp   1
                         Standard orientation:                         
 ---------------------------------------------------------------------
 Center     Atomic      Atomic             Coordinates (Angstroms)
 Number     Number       Type             X           Y           Z
 ---------------------------------------------------------------------
      1          6           0       -1.927745    4.232611    1.196306
      2          6           0       -0.848846    3.224724    0.867515
      3          6           0        0.407991    3.284184    1.487379
      4          6           0        1.422880    2.359936    1.208842
      5          6           0        2.764413    2.510853    1.895003
      6          6           0        1.184578    1.319347    0.271642
      7          6           0        2.254220    0.323145   -0.048559
      8          6           0        2.872831    0.346379   -1.253619
      9          7           0        3.848089   -0.570183   -1.652039
     10          6           0        4.631304   -0.346462   -2.864992
     11          6           0        4.211158   -1.575571   -0.743329
     12          6           0        3.659285   -1.688029    0.477896
     13          6           0        2.612783   -0.726896    1.006286
     14          6           0       -0.085882    1.253291   -0.350017
     15          6           0       -0.372481    0.158296   -1.372508
     16          7           0       -1.794895   -0.231695   -1.416170
     17          7           0       -2.674269    0.360275   -2.229800
     18          6           0       -3.968124   -0.086856   -1.791655
     19          8           0       -5.057936    0.230084   -2.289287
     20          7           0       -3.769852   -0.968965   -0.678432
     21          7           0       -2.441030   -1.005358   -0.492778
     22          6           0       -1.811111   -1.789542    0.525811
     23          6           0       -0.899078   -2.792956    0.178086
     24          6           0       -0.322174   -3.564752    1.191552
     25          6           0       -0.672050   -3.345030    2.529519
     26          6           0       -1.604777   -2.352658    2.858497
     27          6           0       -2.180397   -1.567877    1.856823
     28          6           0       -1.076397    2.202412   -0.060307
     29          1           0       -2.417817    3.994784    2.150180
     30          1           0       -1.515933    5.244037    1.288566
     31          1           0       -2.704123    4.251532    0.425508
     32          1           0        0.611063    4.084522    2.195047
     33          1           0        2.918068    3.543790    2.222815
     34          1           0        2.839882    1.873544    2.786255
     35          1           0        3.587889    2.235872    1.228527
     36          1           0        2.630183    1.103276   -1.992887
     37          1           0        4.010321    0.146205   -3.618676
     38          1           0        5.519382    0.277337   -2.686239
     39          1           0        4.960317   -1.306497   -3.273859
     40          1           0        4.964034   -2.267571   -1.103919
     41          1           0        3.972718   -2.504961    1.120019
     42          1           0        1.703843   -1.273119    1.311708
     43          1           0        2.966319   -0.241903    1.932625
     44          1           0       -0.168658    0.484354   -2.395260
     45          1           0        0.231229   -0.726158   -1.175325
     46          1           0       -0.667160   -2.983155   -0.863806
     47          1           0        0.385276   -4.344720    0.932686
     48          1           0       -0.227950   -3.951594    3.311524
     49          1           0       -1.884701   -2.189357    3.893268
     50          1           0       -2.910048   -0.801388    2.086701
     51          1           0       -2.031237    2.150680   -0.573645
 ---------------------------------------------------------------------
 Rotational constants (GHZ):           0.2110451           0.1429032           0.1217170

 **********************************************************************

            Population analysis using the SCF Density.

 **********************************************************************

 Orbital symmetries:
       Occupied  (A) (A) (A) (A) (A) (A) (A) (A) (A) (A) (A) (A)
                 (A) (A) (A) (A) (A) (A) (A) (A) (A) (A) (A) (A)
                 (A) (A) (A) (A) (A) (A) (A) (A) (A) (A) (A) (A)
                 (A) (A) (A) (A) (A) (A) (A) (A) (A) (A) (A) (A)
                 (A) (A) (A) (A) (A) (A) (A) (A) (A) (A) (A) (A)
                 (A) (A) (A) (A) (A) (A) (A) (A) (A) (A) (A) (A)
                 (A) (A) (A) (A) (A) (A) (A) (A) (A) (A) (A) (A)
                 (A) (A) (A) (A) (A) (A) (A) (A) (A) (A) (A) (A)
                 (A) (A) (A)
       Virtual   (A) (A) (A) (A) (A) (A) (A) (A) (A) (A) (A) (A)
                 (A) (A) (A) (A) (A) (A) (A) (A) (A) (A) (A) (A)
                 (A) (A) (A) (A) (A) (A) (A) (A) (A) (A) (A) (A)
                 (A) (A) (A) (A) (A) (A) (A) (A) (A) (A) (A) (A)
                 (A) (A) (A) (A) (A) (A) (A) (A) (A) (A) (A) (A)
                 (A) (A) (A) (A) (A) (A) (A) (A) (A) (A) (A) (A)
                 (A) (A) (A) (A) (A) (A) (A) (A) (A) (A) (A) (A)
                 (A) (A) (A) (A) (A) (A) (A) (A) (A) (A) (A) (A)
                 (A) (A) (A) (A) (A) (A) (A) (A) (A) (A) (A) (A)
                 (A) (A) (A) (A) (A) (A) (A) (A) (A) (A) (A) (A)
                 (A) (A) (A) (A) (A) (A) (A) (A) (A) (A) (A) (A)
                 (A) (A) (A) (A) (A) (A) (A) (A) (A) (A) (A) (A)
                 (A) (A) (A) (A) (A) (A) (A) (A) (A) (A) (A) (A)
                 (A) (A) (A) (A) (A) (A) (A) (A) (A) (A) (A) (A)
                 (A) (A) (A) (A) (A) (A) (A) (A) (A) (A) (A) (A)
                 (A) (A) (A) (A) (A) (A) (A) (A) (A) (A) (A) (A)
                 (A) (A) (A) (A) (A) (A) (A)
 The electronic state is 1-A.
 Alpha  occ. eigenvalues --  -19.07399 -14.48640 -14.48365 -14.37507 -14.37404
 Alpha  occ. eigenvalues --  -14.37218 -10.28153 -10.27210 -10.26099 -10.23447
 Alpha  occ. eigenvalues --  -10.23054 -10.22794 -10.22653 -10.22316 -10.22158
 Alpha  occ. eigenvalues --  -10.22018 -10.21926 -10.21203 -10.20412 -10.20370
 Alpha  occ. eigenvalues --  -10.20113 -10.19618 -10.19571 -10.18682 -10.18628
 Alpha  occ. eigenvalues --  -10.18437 -10.18182 -10.17940  -1.17091  -1.00036
 Alpha  occ. eigenvalues --   -0.99161  -0.97411  -0.91132  -0.88274  -0.87129
 Alpha  occ. eigenvalues --   -0.82296  -0.81247  -0.79234  -0.78861  -0.78434
 Alpha  occ. eigenvalues --   -0.77064  -0.74378  -0.72966  -0.69743  -0.69471
 Alpha  occ. eigenvalues --   -0.69042  -0.65459  -0.64864  -0.63976  -0.63028
 Alpha  occ. eigenvalues --   -0.61747  -0.59455  -0.58069  -0.56422  -0.54067
 Alpha  occ. eigenvalues --   -0.53440  -0.52671  -0.51094  -0.50566  -0.49581
 Alpha  occ. eigenvalues --   -0.49074  -0.48209  -0.47260  -0.46966  -0.46842
 Alpha  occ. eigenvalues --   -0.45984  -0.45365  -0.44735  -0.44307  -0.43201
 Alpha  occ. eigenvalues --   -0.42815  -0.42218  -0.41887  -0.41626  -0.41486
 Alpha  occ. eigenvalues --   -0.40379  -0.39845  -0.39618  -0.38459  -0.38255
 Alpha  occ. eigenvalues --   -0.37666  -0.37335  -0.36629  -0.35905  -0.35427
 Alpha  occ. eigenvalues --   -0.34872  -0.34355  -0.33776  -0.33582  -0.32754
 Alpha  occ. eigenvalues --   -0.29840  -0.28502  -0.28191  -0.27553  -0.24992
 Alpha  occ. eigenvalues --   -0.24101  -0.22336  -0.19550  -0.18471
 Alpha virt. eigenvalues --   -0.07454  -0.03376  -0.03313  -0.01649  -0.00884
 Alpha virt. eigenvalues --    0.00754   0.05385   0.06410   0.07100   0.08093
 Alpha virt. eigenvalues --    0.09438   0.09863   0.10093   0.10459   0.10697
 Alpha virt. eigenvalues --    0.11202   0.11916   0.12261   0.12864   0.13086
 Alpha virt. eigenvalues --    0.13718   0.14130   0.14475   0.15136   0.15281
 Alpha virt. eigenvalues --    0.15623   0.16121   0.16280   0.16544   0.16848
 Alpha virt. eigenvalues --    0.17297   0.17678   0.18153   0.19082   0.19882
 Alpha virt. eigenvalues --    0.20390   0.21126   0.22442   0.22804   0.23742
 Alpha virt. eigenvalues --    0.24125   0.25080   0.25611   0.25997   0.26553
 Alpha virt. eigenvalues --    0.27524   0.27698   0.29105   0.31548   0.32444
 Alpha virt. eigenvalues --    0.32676   0.33334   0.35133   0.36294   0.37586
 Alpha virt. eigenvalues --    0.38286   0.40064   0.40785   0.41640   0.42366
 Alpha virt. eigenvalues --    0.44172   0.45200   0.47183   0.48514   0.49814
 Alpha virt. eigenvalues --    0.50084   0.51809   0.51967   0.52369   0.53326
 Alpha virt. eigenvalues --    0.54358   0.54758   0.55306   0.55772   0.56054
 Alpha virt. eigenvalues --    0.56328   0.56957   0.57572   0.57821   0.58202
 Alpha virt. eigenvalues --    0.58592   0.58717   0.59288   0.59642   0.59936
 Alpha virt. eigenvalues --    0.60438   0.61213   0.61331   0.61992   0.62052
 Alpha virt. eigenvalues --    0.62572   0.63138   0.63450   0.64132   0.64869
 Alpha virt. eigenvalues --    0.66235   0.66382   0.66808   0.67465   0.68041
 Alpha virt. eigenvalues --    0.69607   0.69871   0.70368   0.70692   0.71374
 Alpha virt. eigenvalues --    0.73140   0.74086   0.74471   0.75626   0.76089
 Alpha virt. eigenvalues --    0.76485   0.77735   0.78315   0.78525   0.79511
 Alpha virt. eigenvalues --    0.80226   0.80786   0.81328   0.82186   0.82913
 Alpha virt. eigenvalues --    0.83552   0.83787   0.84175   0.84944   0.86076
 Alpha virt. eigenvalues --    0.86409   0.87064   0.87148   0.87534   0.88259
 Alpha virt. eigenvalues --    0.89208   0.90083   0.90810   0.91961   0.92215
 Alpha virt. eigenvalues --    0.92779   0.92880   0.93960   0.94280   0.94687
 Alpha virt. eigenvalues --    0.95539   0.96016   0.96447   0.96520   0.97225
 Alpha virt. eigenvalues --    0.97328   0.98690   0.99608   1.00126   1.02066
 Alpha virt. eigenvalues --    1.02326   1.02613   1.03802   1.05883   1.08019
 Alpha virt. eigenvalues --    1.08354   1.09094   1.09996   1.11284   1.11688
 Alpha virt. eigenvalues --    1.12240   1.14621   1.14889   1.15578   1.16517
 Alpha virt. eigenvalues --    1.17077   1.17384   1.18524   1.19038   1.20930
 Alpha virt. eigenvalues --    1.22973   1.24602   1.25383   1.27447   1.29361
 Alpha virt. eigenvalues --    1.30828   1.32521   1.35536   1.36468   1.38155
 Alpha virt. eigenvalues --    1.40340   1.43228   1.44646   1.47929   1.49868
 Alpha virt. eigenvalues --    1.50666   1.51445   1.53284   1.54689   1.56315
 Alpha virt. eigenvalues --    1.59562   1.65742   1.69264   1.73598   1.75662
 Alpha virt. eigenvalues --    1.88883   1.90238   1.94919   2.07616
          Condensed to atoms (all electrons):
 Mulliken charges:
               1
     1  C   -0.483869
     2  C    0.123737
     3  C   -0.193551
     4  C    0.096866
     5  C   -0.477675
     6  C   -0.059398
     7  C   -0.029298
     8  C    0.117925
     9  N   -0.605858
    10  C   -0.243195
    11  C    0.132989
    12  C   -0.152543
    13  C   -0.316702
    14  C    0.075162
    15  C   -0.141076
    16  N   -0.188334
    17  N   -0.206712
    18  C    0.465286
    19  O   -0.463058
    20  N   -0.194278
    21  N   -0.338898
    22  C    0.295506
    23  C   -0.082845
    24  C   -0.148292
    25  C   -0.099300
    26  C   -0.149765
    27  C   -0.061238
    28  C   -0.190863
    29  H    0.157107
    30  H    0.149089
    31  H    0.159976
    32  H    0.119691
    33  H    0.143761
    34  H    0.155386
    35  H    0.155830
    36  H    0.145407
    37  H    0.157387
    38  H    0.156927
    39  H    0.156773
    40  H    0.136634
    41  H    0.112543
    42  H    0.142274
    43  H    0.141286
    44  H    0.207146
    45  H    0.187496
    46  H    0.161717
    47  H    0.147514
    48  H    0.143414
    49  H    0.148473
    50  H    0.176168
    51  H    0.157281
 Sum of Mulliken charges =  -0.00000
 Mulliken charges with hydrogens summed into heavy atoms:
               1
     1  C   -0.017697
     2  C    0.123737
     3  C   -0.073860
     4  C    0.096866
     5  C   -0.022698
     6  C   -0.059398
     7  C   -0.029298
     8  C    0.263332
     9  N   -0.605858
    10  C    0.227891
    11  C    0.269623
    12  C   -0.040000
    13  C   -0.033142
    14  C    0.075162
    15  C    0.253565
    16  N   -0.188334
    17  N   -0.206712
    18  C    0.465286
    19  O   -0.463058
    20  N   -0.194278
    21  N   -0.338898
    22  C    0.295506
    23  C    0.078872
    24  C   -0.000778
    25  C    0.044113
    26  C   -0.001292
    27  C    0.114930
    28  C   -0.033583
 Electronic spatial extent (au):  <R**2>=          10218.3699
 Charge=             -0.0000 electrons
 Dipole moment (field-independent basis, Debye):
    X=             11.1881    Y=             -2.0229    Z=              4.3453  Tot=             12.1716
 Quadrupole moment (field-independent basis, Debye-Ang):
   XX=           -202.8709   YY=           -149.4874   ZZ=           -158.6438
   XY=             -4.2423   XZ=            -34.4777   YZ=              2.1111
 Traceless Quadrupole moment (field-independent basis, Debye-Ang):
   XX=            -32.5369   YY=             20.8466   ZZ=             11.6902
   XY=             -4.2423   XZ=            -34.4777   YZ=              2.1111
 Octapole moment (field-independent basis, Debye-Ang**2):
  XXX=            330.0645  YYY=             -7.9154  ZZZ=             30.0450  XYY=             10.9467
  XXY=             -3.1452  XXZ=             77.2638  XZZ=             76.6278  YZZ=            -25.5592
  YYZ=             27.1624  XYZ=             -6.9579
 Hexadecapole moment (field-independent basis, Debye-Ang**3):
 XXXX=          -8200.5950 YYYY=          -4069.9995 ZZZZ=          -2468.5761 XXXY=           -131.0328
 XXXZ=           -827.7668 YYYX=           -129.7582 YYYZ=             30.3294 ZZZX=           -269.8072
 ZZZY=            -42.5402 XXYY=          -1853.4844 XXZZ=          -1701.3082 YYZZ=          -1048.6100
 XXYZ=             85.7838 YYXZ=             10.5908 ZZXY=             42.7246
 N-N= 2.581387518751D+03 E-N=-7.951637371731D+03  KE= 1.194039558923D+03
 Unable to Open any file for archive entry.
 1\1\GINC-N1\FOpt\RB3LYP\6-31G\C22H23N5O1\HPCMGAC13\13-Jun-2025\0\\# op
 t b3lyp/6-31g\\[No Title]\\0,1\C,2.4393477671,1.1372920924,0.273010833
 6\C,1.1174983652,0.4024349192,0.2987347569\C,0.8202181686,-0.513485364
 4,1.3185974129\C,-0.3983127481,-1.2020239888,1.3725735596\C,-0.6311348
 508,-2.1998042732,2.4877112569\C,-1.3774499369,-0.9725537023,0.3692833
 346\C,-2.6846442359,-1.7001268852,0.4003154628\C,-2.9533195469,-2.6643
 304868,-0.5126545364\N,-4.1611983668,-3.361344515,-0.5844410187\C,-4.2
 936844543,-4.5387151139,-1.4394136575\C,-5.1565174587,-3.0436043135,0.
 351911831\C,-4.9921753093,-2.1036395202,1.2995707123\C,-3.7094109711,-
 1.3139888121,1.4701761764\C,-1.0821888973,-0.0430842721,-0.6572637815\
 C,-2.1038795918,0.2175945188,-1.7594605032\N,-2.0214032108,1.583872822
 5,-2.3105875375\N,-1.2443475953,1.8885359333,-3.3541799689\C,-1.219670
 3719,3.3245199686,-3.4116161997\O,-0.6107737255,4.0122033196,-4.243550
 9032\N,-2.0301343134,3.8171581515,-2.3359064571\N,-2.4744746222,2.7208
 395795,-1.701709358\C,-3.3375882881,2.7687052029,-0.5606535361\C,-4.60
 33931085,2.1730438446,-0.6104696136\C,-5.4382749055,2.2618641251,0.507
 8710039\C,-5.0156716904,2.9552997084,1.6486610598\C,-3.7551361363,3.56
 64070349,1.673272093\C,-2.907488983,3.4762469221,0.5669553594\C,0.1529
 152953,0.6196694752,-0.6912872448\H,2.4448930452,1.9724025072,0.986571
 0319\H,3.2702658088,0.4760113062,0.5438735225\H,2.6455814722,1.5525659
 029,-0.718082448\H,1.5659573252,-0.7119104401,2.0848045251\H,0.3207284
 831,-2.560111544,2.8904058786\H,-1.1883200371,-1.7544461345,3.32281010
 05\H,-1.2052841905,-3.0636162693,2.13828534\H,-2.2180608957,-2.9494131
 123,-1.2585839963\H,-3.6882958619,-4.4090318407,-2.3411162759\H,-3.974
 2744452,-5.4640167903,-0.937862519\H,-5.3370752642,-4.6553702848,-1.74
 73338274\H,-6.0783666569,-3.6048495914,0.2474625636\H,-5.8142437164,-1
 .894545076,1.9766404758\H,-3.9114868054,-0.2303517825,1.4181155511\H,-
 3.2926667815,-1.4676508993,2.4806321954\H,-1.9400091335,-0.4174137935,
 -2.6334112558\H,-3.1167825603,0.0409396701,-1.4010937629\H,-4.93757582
 88,1.6750199011,-1.5136829206\H,-6.420845745,1.804057225,0.479335487\H
 ,-5.6699654535,3.0283548253,2.5107730314\H,-3.4315800924,4.1130925438,
 2.5520339118\H,-1.9327994477,3.9481274672,0.5600697455\H,0.3692914838,
 1.3031728487,-1.5060969108\\Version=ES64L-G16RevC.02\State=1-A\HF=-120
 0.7026293\RMSD=7.402e-09\RMSF=3.960e-06\Dipole=-2.0251751,-3.0379098,3
 .0985857\Quadrupole=14.8076604,-2.8813119,-11.9263485,-4.0492254,11.29
 05047,28.12771\PG=C01 [X(C22H23N5O1)]\\@
 The archive entry for this job was punched.


 "THE ACADEMIC HIERARCHY"


 THE PRESIDENT:
   LEAPS TALL BUILDINGS IN A SINGLE BOUND,
     IS MORE POWERFUL THAN A LOCOMOTIVE,
       IS FASTER THAN A SPEEDING BULLET,
         WALKS ON WATER,
           GIVES POLICY TO GOD.

 THE VICE PRESIDENT FOR ACADEMIC AFFAIRS:
   LEAPS SHORT BUILDINGS IN A SINGLE BOUND,
     IS MORE POWERFUL THAN A SWITCH ENGINE,
       IS JUST AS FAST AS A SPEEDING BULLET,
         WALKS ON WATER IF SEA IS CALM,
           TALKS WITH GOD.

 PROFESSOR:
   LEAPS SHORT BUILDINGS WITH A RUNNING START AND FAVORABLE WINDS,
     IS ALMOST AS POWERFUL AS A SWITCH ENGINE,
       CAN FIRE A SPEEDING BULLET,
         WALKS ON WATER IN AN INDOOR SWIMMING POOL,
          TALKS WITH GOD IF SPECIAL REQUEST IS APPROVED.

 ASSOCIATE PROFESSOR:
   BARELY CLEARS A QUONSET HUT,
     LOSES TUG OF WAR WITH LOCOMOTIVE,
       MISFIRES FREQUENTLY,
         SWIMS WELL,
           IS OCCASIONALLY ADDRESSED BY GOD.

 ASSISTANT PROFESSOR:
   MAKES HIGH MARKS ON WALLS WHEN TRYING TO LEAP TALL BUILDINGS,
     IS RUN OVER BY LOCOMOTIVES,
       CAN SOMETIMES HANDLE A GUN WITHOUT INFLICTING SELF INJURY,
         DOG PADDLES,
           TALKS TO ANIMALS.

 GRADUATE STUDENT:
   RUNS INTO BUILDINGS,
     RECOGNIZES LOCOMOTIVES TWO OUT OF THREE TIMES,
       IS NOT ISSUED AMMUNITION,
         CAN STAY AFLOAT WITH A LIFE JACKET,
           TALKS TO WALLS.

 UNDERGRADUATE AND WORK STUDY STUDENT:
   FALLS OVER DOORSTEP WHEN TRYING TO ENTER BUILDINGS,
     SAYS, "LOOK AT THE CHOO-CHOO,"
       WETS HIMSELF WITH A WATER PISTOL,
        PLAYS IN MUD PUDDLES,
          MUMBLES TO HIMSELF.

 DEPARTMENT SECRETARY:
   LIFTS TALL BUILDINGS AND WALKS UNDER THEM,
     KICKS LOCOMOTIVES OFF THE TRACKS,
       CATCHES SPEEDING BULLETS IN HER TEETH AND EATS THEM,
         FREEZES WATER WITH A SINGLE GLANCE,
           IS GOD.
 Job cpu time:       0 days  4 hours 18 minutes 57.1 seconds.
 Elapsed time:       0 days  0 hours 33 minutes 35.9 seconds.
 File lengths (MBytes):  RWF=     75 Int=      0 D2E=      0 Chk=     10 Scr=      2
 Normal termination of Gaussian 16 at Fri Jun 13 06:51:54 2025.
