 Entering Gaussian System, Link 0=g16
 Input=M1735.gjf
 Output=M1735.log
 Initial command:
 /hpc/softwares/Gaussian/g16/l1.exe "/hpc/home/hpcmgac13/pbs.11121.admin1.x8z/Gau-185880.inp" -scrdir="/hpc/home/hpcmgac13/pbs.11121.admin1.x8z/"
 Default linda workers: n2
 Default is to use  16 SMP processors on each worker.
 Entering Link 1 = /hpc/softwares/Gaussian/g16/l1.exe PID=    185881.
  
 Copyright (c) 1988-2021, Gaussian, Inc.  All Rights Reserved.
  
 This is part of the Gaussian(R) 16 program.  It is based on
 the Gaussian(R) 09 system (copyright 2009, Gaussian, Inc.),
 the Gaussian(R) 03 system (copyright 2003, Gaussian, Inc.),
 the Gaussian(R) 98 system (copyright 1998, Gaussian, Inc.),
 the Gaussian(R) 94 system (copyright 1995, Gaussian, Inc.),
 the Gaussian 92(TM) system (copyright 1992, Gaussian, Inc.),
 the Gaussian 90(TM) system (copyright 1990, Gaussian, Inc.),
 the Gaussian 88(TM) system (copyright 1988, Gaussian, Inc.),
 the Gaussian 86(TM) system (copyright 1986, Carnegie Mellon
 University), and the Gaussian 82(TM) system (copyright 1983,
 Carnegie Mellon University). Gaussian is a federally registered
 trademark of Gaussian, Inc.
  
 This software contains proprietary and confidential information,
 including trade secrets, belonging to Gaussian, Inc.
  
 This software is provided under written license and may be
 used, copied, transmitted, or stored only in accord with that
 written license.
  
 The following legend is applicable only to US Government
 contracts under FAR:
  
                    RESTRICTED RIGHTS LEGEND
  
 Use, reproduction and disclosure by the US Government is
 subject to restrictions as set forth in subparagraphs (a)
 and (c) of the Commercial Computer Software - Restricted
 Rights clause in FAR 52.227-19.
  
 Gaussian, Inc.
 340 Quinnipiac St., Bldg. 40, Wallingford CT 06492
  
  
 ---------------------------------------------------------------
 Warning -- This program may not be used in any manner that
 competes with the business of Gaussian, Inc. or will provide
 assistance to any competitor of Gaussian, Inc.  The licensee
 of this program is prohibited from giving any competitor of
 Gaussian, Inc. access to this program.  By using this program,
 the user acknowledges that Gaussian, Inc. is engaged in the
 business of creating and licensing software in the field of
 computational chemistry and represents and warrants to the
 licensee that it is not a competitor of Gaussian, Inc. and that
 it will not use this program in any manner prohibited above.
 ---------------------------------------------------------------
  

 Cite this work as:
 Gaussian 16, Revision C.02,
 M. J. Frisch, G. W. Trucks, H. B. Schlegel, G. E. Scuseria, 
 M. A. Robb, J. R. Cheeseman, G. Scalmani, V. Barone, 
 G. A. Petersson, H. Nakatsuji, X. Li, M. Caricato, A. V. Marenich, 
 J. Bloino, B. G. Janesko, R. Gomperts, B. Mennucci, H. P. Hratchian, 
 J. V. Ortiz, A. F. Izmaylov, J. L. Sonnenberg, D. Williams-Young, 
 F. Ding, F. Lipparini, F. Egidi, J. Goings, B. Peng, A. Petrone, 
 T. Henderson, D. Ranasinghe, V. G. Zakrzewski, J. Gao, N. Rega, 
 G. Zheng, W. Liang, M. Hada, M. Ehara, K. Toyota, R. Fukuda, 
 J. Hasegawa, M. Ishida, T. Nakajima, Y. Honda, O. Kitao, H. Nakai, 
 T. Vreven, K. Throssell, J. A. Montgomery, Jr., J. E. Peralta, 
 F. Ogliaro, M. J. Bearpark, J. J. Heyd, E. N. Brothers, K. N. Kudin, 
 V. N. Staroverov, T. A. Keith, R. Kobayashi, J. Normand, 
 K. Raghavachari, A. P. Rendell, J. C. Burant, S. S. Iyengar, 
 J. Tomasi, M. Cossi, J. M. Millam, M. Klene, C. Adamo, R. Cammi, 
 J. W. Ochterski, R. L. Martin, K. Morokuma, O. Farkas, 
 J. B. Foresman, and D. J. Fox, Gaussian, Inc., Wallingford CT, 2019.
 
 ******************************************
 Gaussian 16:  ES64L-G16RevC.02  7-Dec-2021
                13-Jun-2025 
 ******************************************
 SetLPE:    new flags="-opt 'Tsnet.Node.lindarsharg: ssh'  -nodelist 'n2.head.cm.mguif.local' -env GAUSS_MDEF=4294967296 -env GAUSS_EXEDIR="/hpc/softwares/Gaussian/g16/bsd:/hpc/softwares/Gaussian/g16""
 Will use up to    1 processors via Linda.
 ----------------------------------
 # td=(50-50,nstates=3) b3lyp/6-31g
 ----------------------------------
 1/38=1,172=1/1;
 2/12=2,17=6,18=5,40=1/2;
 3/5=1,6=6,11=9,25=1,30=1,74=-5/1,2,3,8;
 4//1;
 5/5=2,38=5/2;
 8/6=1,10=2,108=3/1;
 9/41=3,42=1,48=2,70=2/14;
 6/7=2,8=2,9=2,10=2/1;
 99/5=1,9=1/99;
 ----------
 [No Title]
 ----------
 Symbolic Z-matrix:
 Charge =  0 Multiplicity = 1
 C                     0.12822   4.8126   -0.15146 
 C                    -0.51698   3.44507  -0.09295 
 C                    -1.78804   3.22747  -0.64946 
 C                    -2.41126   1.97542  -0.60405 
 C                    -3.77859   1.79948  -1.23328 
 C                    -1.74515   0.88654   0.01912 
 C                    -0.46567   1.0913    0.58187 
 C                     0.29025  -0.03348   1.28583 
 C                     0.12705   2.36414   0.51442 
 H                     0.20016   5.17793  -1.18352 
 H                    -0.45262   5.55416   0.41237 
 H                     1.13924   4.79387   0.26721 
 H                    -2.3052    4.05362  -1.13181 
 H                    -4.16035   2.75614  -1.6029 
 H                    -3.74856   1.09949  -2.07634 
 H                    -4.50999   1.3999   -0.52044 
 H                     1.1171    2.50568   0.93952 
 C                    -3.80615  -2.94965   0.39409 
 C                    -3.00484  -2.72098  -0.86802 
 C                    -2.3444   -1.35933  -0.88013 
 C                    -2.42731  -0.44921   0.106 
 C                    -3.23484  -0.70874   1.3685 
 C                    -3.90263  -2.05992   1.38982 
 H                    -4.31503  -3.90923   0.47174 
 H                    -1.75671  -1.12647  -1.76804 
 H                    -2.57908  -0.59826   2.24891 
 H                    -4.49144  -2.29593   2.27433 
 C                     1.97131  -0.48404  -0.57275 
 C                     1.71281  -0.24927   0.78989 
 C                     2.79593  -0.24829   1.6825 
 C                     4.10538  -0.47746   1.23937 
 C                     4.31889  -0.70863  -0.11523 
 C                     3.27035  -0.71595  -1.03364 
 H                     1.14901  -0.4786   -1.28104 
 H                     2.61977  -0.06855   2.73909 
 H                     4.93586  -0.47355   1.93484 
 H                     3.46318  -0.89705  -2.08413 
 H                     0.32575   0.17382   2.36421 
 H                    -0.26943  -0.968     1.16796 
 C                    -1.95987  -3.85004  -1.07963 
 H                    -2.44883  -4.83062  -1.12157 
 H                    -1.41085  -3.70369  -2.01747 
 H                    -1.23725  -3.86174  -0.25638 
 Cl                    6.02428  -1.00827  -0.71076 
 H                    -3.69625  -2.77272  -1.72932 
 H                    -3.98804   0.08811   1.49094 
 
                          Input orientation:                          
 ---------------------------------------------------------------------
 Center     Atomic      Atomic             Coordinates (Angstroms)
 Number     Number       Type             X           Y           Z
 ---------------------------------------------------------------------
      1          6           0        0.128216    4.812601   -0.151456
      2          6           0       -0.516975    3.445068   -0.092951
      3          6           0       -1.788035    3.227471   -0.649460
      4          6           0       -2.411259    1.975422   -0.604045
      5          6           0       -3.778590    1.799477   -1.233280
      6          6           0       -1.745154    0.886543    0.019121
      7          6           0       -0.465672    1.091301    0.581868
      8          6           0        0.290252   -0.033482    1.285834
      9          6           0        0.127046    2.364141    0.514421
     10          1           0        0.200162    5.177926   -1.183524
     11          1           0       -0.452622    5.554162    0.412368
     12          1           0        1.139242    4.793869    0.267209
     13          1           0       -2.305197    4.053618   -1.131807
     14          1           0       -4.160347    2.756140   -1.602903
     15          1           0       -3.748563    1.099488   -2.076339
     16          1           0       -4.509992    1.399898   -0.520441
     17          1           0        1.117101    2.505682    0.939520
     18          6           0       -3.806148   -2.949646    0.394086
     19          6           0       -3.004844   -2.720977   -0.868022
     20          6           0       -2.344395   -1.359326   -0.880129
     21          6           0       -2.427310   -0.449205    0.106001
     22          6           0       -3.234838   -0.708737    1.368495
     23          6           0       -3.902627   -2.059920    1.389820
     24          1           0       -4.315033   -3.909226    0.471738
     25          1           0       -1.756707   -1.126472   -1.768038
     26          1           0       -2.579082   -0.598259    2.248908
     27          1           0       -4.491439   -2.295926    2.274328
     28          6           0        1.971312   -0.484044   -0.572754
     29          6           0        1.712814   -0.249273    0.789891
     30          6           0        2.795931   -0.248285    1.682500
     31          6           0        4.105380   -0.477457    1.239368
     32          6           0        4.318889   -0.708630   -0.115228
     33          6           0        3.270349   -0.715950   -1.033643
     34          1           0        1.149006   -0.478604   -1.281044
     35          1           0        2.619765   -0.068552    2.739090
     36          1           0        4.935863   -0.473552    1.934839
     37          1           0        3.463176   -0.897049   -2.084126
     38          1           0        0.325749    0.173819    2.364205
     39          1           0       -0.269428   -0.968004    1.167962
     40          6           0       -1.959865   -3.850042   -1.079630
     41          1           0       -2.448830   -4.830621   -1.121567
     42          1           0       -1.410854   -3.703691   -2.017470
     43          1           0       -1.237250   -3.861741   -0.256378
     44         17           0        6.024277   -1.008270   -0.710764
     45          1           0       -3.696252   -2.772722   -1.729322
     46          1           0       -3.988039    0.088108    1.490940
 ---------------------------------------------------------------------
                    Distance matrix (angstroms):
                    1          2          3          4          5
     1  C    0.000000
     2  C    1.513222   0.000000
     3  C    2.536270   1.404509   0.000000
     4  C    3.834495   2.451405   1.399320   0.000000
     5  C    5.050979   3.827068   2.518397   1.515417   0.000000
     6  C    4.353452   2.840252   2.434909   1.420454   2.556720
     7  C    3.839081   2.449129   2.797863   2.444048   3.843397
     8  C    5.057329   3.827920   4.324171   3.860764   5.124563
     9  C    2.537390   1.397164   2.401561   2.800904   4.315935
    10  H    1.097180   2.169431   2.835917   4.172691   5.219853
    11  H    1.097808   2.169739   2.885186   4.204371   5.279004
    12  H    1.094443   2.166110   3.444247   4.616144   5.950035
    13  H    2.731051   2.155758   1.087490   2.146784   2.694872
    14  H    4.972676   4.003590   2.599821   2.160219   1.094333
    15  H    5.702789   4.458557   3.226138   2.173314   1.096191
    16  H    5.770240   4.506623   3.281115   2.177819   1.096700
    17  H    2.736786   2.149104   3.389049   3.887556   5.402553
    18  C    8.719479   7.207512   6.581682   5.215197   5.020284
    19  C    8.190502   6.694052   6.075560   4.741117   4.600717
    20  C    6.688606   5.200126   4.626170   3.346825   3.487071
    21  C    5.855220   4.342157   3.807537   2.526507   2.945539
    22  C    6.641201   5.174621   4.653935   3.431313   3.654591
    23  C    8.115095   6.630697   6.048691   4.741694   4.668081
    24  H    9.808216   8.296370   7.653447   6.277798   5.981985
    25  H    6.437302   5.024125   4.495444   3.377138   3.596548
    26  H    6.509118   5.107356   4.864412   3.845951   4.394723
    27  H    8.817981   7.372882   6.809174   5.554871   5.439099
    28  C    5.623962   4.675436   5.283362   5.025622   6.221908
    29  C    5.386989   4.404489   5.139594   4.888794   6.200493
    30  C    6.007717   5.269576   6.207388   6.106389   7.477929
    31  C    6.762909   6.207048   7.212940   7.202872   8.570613
    32  C    6.931598   6.374895   7.285109   7.262091   8.550427
    33  C    6.419979   5.704629   6.425373   6.301485   7.486973
    34  H    5.505891   4.425185   4.770755   4.376763   5.428917
    35  H    6.195864   5.495918   6.463338   6.376957   7.759394
    36  H    7.443756   7.014339   8.098579   8.150068   9.547006
    37  H    6.888924   6.217746   6.829725   6.704530   7.774212
    38  H    5.280707   4.177184   4.782787   4.421255   5.694757
    39  H    5.942590   4.596345   4.817800   4.048605   5.073375
    40  C    8.958960   7.501606   7.092656   5.862249   5.937039
    41  H   10.028660   8.560207   8.098912   6.825794   6.763057
    42  H    8.853134   7.457047   7.074936   5.937247   6.042018
    43  H    8.781783   7.344043   7.121433   5.964197   6.281890
    44  Cl   8.304150   7.937373   8.886927   8.948300  10.210420
    45  H    8.640217   7.172616   6.388248   5.046021   4.599765
    46  H    6.477797   5.081946   4.390550   3.230658   3.223977
                    6          7          8          9         10
     6  C    0.000000
     7  C    1.412687   0.000000
     8  C    2.567856   1.527130   0.000000
     9  C    2.435929   1.405697   2.523947   0.000000
    10  H    4.862775   4.501161   5.767549   3.287210   0.000000
    11  H    4.859213   4.466098   5.704084   3.243866   1.764809
    12  H    4.862971   4.047687   5.006166   2.643716   1.770310
    13  H    3.415940   3.885339   5.411629   3.388245   2.746555
    14  H    3.458253   4.603861   5.994550   4.797756   5.005493
    15  H    2.906879   4.224157   5.375859   4.830293   5.746582
    16  H    2.863388   4.203194   5.325369   4.847971   6.074432
    17  H    3.414857   2.152570   2.692762   1.086716   3.533975
    18  C    4.370886   5.246265   5.106831   6.612173   9.197652
    19  C    3.922760   4.804481   4.766485   6.130115   8.530198
    20  C    2.492322   3.416520   3.659320   4.681559   7.021573
    21  C    1.502367   2.539219   2.991651   3.821840   6.342798
    22  C    2.566103   3.395173   3.590134   4.634036   7.277694
    23  C    3.900660   4.732403   4.658057   6.047884   8.708696
    24  H    5.459720   6.311496   6.073944   7.686938  10.281207
    25  H    2.691895   3.479561   3.835466   4.576300   6.626947
    26  H    2.805713   3.178071   3.078890   4.371200   7.271183
    27  H    4.770341   5.526710   5.381481   6.792930   9.477675
    28  C    4.005115   3.123100   2.546236   3.563064   5.963884
    29  C    3.720444   2.566362   1.521909   3.069279   5.969671
    30  C    4.967506   3.693770   2.545960   3.913071   6.663023
    31  C    6.130110   4.877276   3.841155   4.942405   7.287283
    32  C    6.271782   5.159236   4.318416   5.235449   7.263381
    33  C    5.369503   4.453525   3.837540   4.665171   6.647277
    34  H    3.454015   2.922709   2.743074   3.514157   5.736388
    35  H    5.230961   3.939389   2.745872   4.132892   6.983331
    36  H    7.082078   5.784105   4.711324   5.761494   8.005639
    37  H    5.893348   5.147515   4.708484   5.340184   6.954399
    38  H    3.208743   2.155190   1.098689   2.873794   6.135409
    39  H    2.633809   2.150059   1.095658   3.418698   6.597155
    40  C    4.867093   5.423104   5.022407   6.746278   9.283357
    41  H    5.872163   6.473312   6.025835   7.815126  10.353357
    42  H    5.032863   5.535510   5.222644   6.752347   9.064985
    43  H    4.783311   5.082383   4.400823   6.420050   9.200072
    44  Cl   8.030386   6.942516   6.149444   6.903011   8.509573
    45  H    4.500451   5.541563   5.699721   6.785230   8.870893
    46  H    2.798979   3.773576   4.284930   4.802899   7.113370
                   11         12         13         14         15
    11  H    0.000000
    12  H    1.770070   0.000000
    13  H    2.840448   3.790696   0.000000
    14  H    5.063346   5.977901   2.312350   0.000000
    15  H    6.074620   6.559825   3.420867   1.771498   0.000000
    16  H    5.881351   6.637264   3.503872   1.770132   1.758078
    17  H    3.469171   2.385014   4.289362   5.863284   5.894699
    18  C    9.141183   9.188852   7.323040   6.055528   4.743606
    19  C    8.753923   8.656507   6.815734   5.645711   4.075426
    20  C    7.283246   7.163374   5.418934   4.556001   3.073820
    21  C    6.327217   6.343194   4.671455   4.024675   2.984421
    22  C    6.919451   7.115060   5.458550   4.657375   3.924344
    23  C    8.416186   8.582256   6.803362   5.676024   4.692532
    24  H   10.221421  10.273014   8.367657   6.982490   5.648079
    25  H    7.147425   6.897767   5.247758   4.569402   3.002905
    26  H    6.763653   6.843107   5.757101   5.346853   4.791429
    27  H    9.022351   9.273526   7.529815   6.376983   5.568573
    28  C    6.580718   5.408719   6.260307   7.011223   6.122525
    29  C    6.205763   5.102496   6.192916   7.017976   6.313562
    30  C    6.770135   5.492812   7.242113   8.258949   7.666535
    31  C    7.605244   6.126169   8.200525   9.319705   8.669780
    32  C    7.891023   6.366625   8.221372   9.279830   8.497001
    33  C    7.434095   6.049127   7.337924   8.221600   7.324490
    34  H    6.467389   5.495103   5.700423   6.225463   5.206635
    35  H    6.816752   5.652016   7.498759   8.532392   8.068970
    36  H    8.227212   6.703808   9.073728  10.280446   9.694496
    37  H    7.948841   6.581489   7.660949   8.467318   7.483007
    38  H    5.776125   5.138485   5.847804   6.521609   6.097156
    39  H    6.568343   5.999574   5.886423   6.056913   5.186944
    40  C    9.640378   9.280929   7.911373   6.982663   5.356372
    41  H   10.685575  10.365026   8.885406   7.792299   6.145493
    42  H    9.619260   9.161401   7.858759   7.032851   5.342179
    43  H    9.472175   8.991187   8.034911   7.358938   5.850876
    44  Cl   9.288550   7.647537   9.756030  10.894644  10.090384
    45  H    9.189394   9.198991   6.992208   5.549746   3.888080
    46  H    6.598503   7.066167   5.043414   4.089003   3.715605
                   16         17         18         19         20
    16  H    0.000000
    17  H    5.917636   0.000000
    18  C    4.500032   7.368615   0.000000
    19  C    4.400897   6.897507   1.512380   0.000000
    20  C    3.525975   5.498306   2.507880   1.513418   0.000000
    21  C    2.854676   4.689239   2.869912   2.538349   1.344488
    22  C    3.104906   5.427327   2.509490   3.017286   2.504489
    23  C    3.998541   6.800379   1.338808   2.518107   2.841054
    24  H    5.404556   8.418904   1.088939   2.218893   3.494703
    25  H    3.939495   5.364903   3.492700   2.215924   1.089945
    26  H    3.923052   5.001071   3.236522   3.795057   3.228804
    27  H    4.633594   7.502858   2.105299   3.502142   3.929073
    28  C    6.749761   3.457616   6.355550   5.463806   4.414286
    29  C    6.569631   2.822595   6.156916   5.578019   4.525719
    30  C    7.806790   3.309807   7.248780   6.802085   5.850165
    31  C    8.991442   4.233065   8.331776   7.747887   6.846135
    32  C    9.086211   4.657869   8.443801   7.632385   6.738533
    33  C    8.079226   4.348421   7.556760   6.589811   5.653570
    34  H    6.010952   3.719931   5.784951   4.738491   3.624949
    35  H    7.975859   3.481829   7.422406   7.189078   6.277558
    36  H    9.937927   4.944637   9.215624   8.715605   7.855622
    37  H    8.443488   5.121043   7.949702   6.829415   5.949049
    38  H    5.762711   2.844917   5.541658   5.469916   4.472796
    39  H    5.141989   3.747151   4.127248   3.834142   2.941649
    40  C    5.863251   7.344380   2.528105   1.552916   2.528108
    41  H    6.590076   8.413399   2.770845   2.196368   3.481248
    42  H    6.155678   7.327391   3.481612   2.197217   2.767868
    43  H    6.202049   6.893273   2.802545   2.190854   2.806584
    44  Cl  10.807697   6.257130  10.081016   9.191470   8.377744
    45  H    4.419765   7.625787   2.133598   1.105694   2.132213
    46  H    2.457414   5.675490   3.234830   3.797675   3.227785
                   21         22         23         24         25
    21  C    0.000000
    22  C    1.520970   0.000000
    23  C    2.533605   1.507346   0.000000
    24  H    3.958410   3.494871   2.105442   0.000000
    25  H    2.102480   3.492451   3.930441   4.393785   0.000000
    26  H    2.153440   1.103335   2.150873   4.139367   4.134146
    27  H    3.517478   2.217825   1.088464   2.425528   5.018676
    28  C    4.450820   5.560839   6.390481   7.234706   3.967309
    29  C    4.200989   5.002514   5.930559   7.059137   4.398870
    30  C    5.459667   6.056467   6.945384   8.089144   5.779614
    31  C    6.630336   7.344996   8.164251   9.125221   6.620406
    32  C    6.754809   7.698066   8.466669   9.226752   6.310249
    33  C    5.816636   6.934535   7.689669   8.366672   5.096975
    34  H    3.835987   5.127485   5.929003   6.685592   3.016631
    35  H    5.705350   6.046879   6.951811   8.245186   6.370785
    36  H    7.586933   8.193681   8.996250   9.976151   7.676464
    37  H    6.300400   7.537867   8.226520   8.723886   5.234475
    38  H    3.614828   3.801069   4.880387   6.464483   4.806538
    39  H    2.460359   2.983469   3.800215   5.049994   3.295028
    40  C    3.631793   4.181707   3.616220   2.820826   2.816560
    41  H    4.550186   4.879359   4.012153   2.621126   3.823307
    42  H    4.016714   4.874569   4.529960   3.830490   2.612257
    43  H    3.632212   4.070873   3.613968   3.163093   3.168067
    44  Cl   8.509347   9.494433  10.201071  10.803480   7.853376
    45  H    3.221390   3.750921   3.206201   2.553272   2.544302
    46  H    2.154678   1.103298   2.152102   4.138161   4.132189
                   26         27         28         29         30
    26  H    0.000000
    27  H    2.557309   0.000000
    28  C    5.355456   7.290812   0.000000
    29  C    4.546525   6.699634   1.406677   0.000000
    30  C    5.416093   7.592684   2.412830   1.403529   0.000000
    31  C    6.761346   8.847783   2.799656   2.445091   1.401265
    32  C    7.292690   9.265601   2.402267   2.796762   2.400655
    33  C    6.708564   8.583959   1.397747   2.443149   2.796644
    34  H    5.135515   6.910713   1.085307   2.158528   3.398235
    35  H    5.248703   7.466353   3.400211   2.157451   1.086150
    36  H    7.522539   9.607826   3.882872   3.427718   2.166502
    37  H    7.441327   9.177629   2.163441   3.426858   3.879895
    38  H    3.007896   5.414150   3.430217   2.140425   2.597055
    39  H    2.576753   4.562105   2.878407   2.142147   3.190481
    40  C    4.694325   4.480310   5.200098   5.472588   6.574162
    41  H    5.412020   4.704151   6.223470   6.477785   7.507870
    42  H    5.404669   5.467297   4.887983   5.437976   6.582298
    43  H    4.327503   4.409761   4.669454   4.779904   5.751770
    44  Cl   9.107445  11.006776   4.089057   4.627824   4.089928
    45  H    4.669333   4.109607   6.220690   6.478597   7.756401
    46  H    1.740912   2.559439   6.332460   5.753696   6.795006
                   31         32         33         34         35
    31  C    0.000000
    32  C    1.390668   0.000000
    33  C    2.433256   1.393907   0.000000
    34  H    3.884923   3.385291   2.148869   0.000000
    35  H    2.150214   3.382877   3.882769   4.300320   0.000000
    36  H    1.083235   2.153763   3.412415   4.968120   2.484986
    37  H    3.410879   2.155065   1.083279   2.485039   4.966001
    38  H    3.996877   4.782413   4.583419   3.793580   2.337048
    39  H    4.402804   4.771426   4.176196   2.872124   3.409530
    40  C    7.317054   7.086698   6.097523   4.590451   7.060829
    41  H    8.214726   7.987838   7.046081   5.648886   7.954409
    42  H    7.172476   6.739352   5.639874   4.182869   7.216993
    43  H    6.498794   6.390048   5.551449   4.264947   6.183662
    44  Cl   2.786924   1.831064   2.788157   4.937006   4.937131
    45  H    8.657183   8.432571   7.297110   5.379633   8.195811
    46  H    8.117055   8.498213   7.726851   5.864664   6.726477
                   36         37         38         39         40
    36  H    0.000000
    37  H    4.301190   0.000000
    38  H    4.675104   5.547779   0.000000
    39  H    5.284661   4.951105   1.757553   0.000000
    40  C    8.248562   6.256081   5.768491   4.026834   0.000000
    41  H    9.102712   7.165984   6.700247   4.991147   1.096531
    42  H    8.144652   5.624753   6.103274   4.351300   1.096529
    43  H    7.374861   5.850134   5.059265   3.367364   1.095469
    44  Cl   2.910289   2.908218   6.582248   6.568254   8.482821
    45  H    9.655344   7.409551   6.451012   4.836774   2.144238
    46  H    8.952571   8.322994   4.402125   3.879144   5.121557
                   41         42         43         44         45
    41  H    0.000000
    42  H    1.774826   0.000000
    43  H    1.776290   1.776672   0.000000
    44  Cl   9.304443   8.015856   7.815276   0.000000
    45  H    2.482010   2.484507   3.066304   9.931739   0.000000
    46  H    5.778257   5.773090   5.120671  10.309996   4.317357
                   46
    46  H    0.000000
 Stoichiometry    C22H23Cl
 Framework group  C1[X(C22H23Cl)]
 Deg. of freedom   132
 Full point group                 C1      NOp   1
 Largest Abelian subgroup         C1      NOp   1
 Largest concise Abelian subgroup C1      NOp   1
                         Standard orientation:                         
 ---------------------------------------------------------------------
 Center     Atomic      Atomic             Coordinates (Angstroms)
 Number     Number       Type             X           Y           Z
 ---------------------------------------------------------------------
      1          6           0        0.128216    4.812601   -0.151456
      2          6           0       -0.516975    3.445068   -0.092951
      3          6           0       -1.788035    3.227471   -0.649460
      4          6           0       -2.411259    1.975422   -0.604045
      5          6           0       -3.778590    1.799477   -1.233280
      6          6           0       -1.745154    0.886543    0.019121
      7          6           0       -0.465672    1.091301    0.581868
      8          6           0        0.290252   -0.033482    1.285834
      9          6           0        0.127046    2.364141    0.514421
     10          1           0        0.200162    5.177926   -1.183524
     11          1           0       -0.452622    5.554162    0.412368
     12          1           0        1.139242    4.793869    0.267209
     13          1           0       -2.305197    4.053618   -1.131807
     14          1           0       -4.160347    2.756140   -1.602903
     15          1           0       -3.748563    1.099488   -2.076339
     16          1           0       -4.509992    1.399898   -0.520441
     17          1           0        1.117101    2.505682    0.939520
     18          6           0       -3.806148   -2.949646    0.394086
     19          6           0       -3.004844   -2.720977   -0.868022
     20          6           0       -2.344395   -1.359326   -0.880129
     21          6           0       -2.427310   -0.449205    0.106001
     22          6           0       -3.234838   -0.708737    1.368495
     23          6           0       -3.902627   -2.059920    1.389820
     24          1           0       -4.315033   -3.909226    0.471738
     25          1           0       -1.756707   -1.126472   -1.768038
     26          1           0       -2.579082   -0.598259    2.248908
     27          1           0       -4.491439   -2.295926    2.274328
     28          6           0        1.971312   -0.484044   -0.572754
     29          6           0        1.712814   -0.249273    0.789891
     30          6           0        2.795931   -0.248285    1.682500
     31          6           0        4.105380   -0.477457    1.239368
     32          6           0        4.318889   -0.708630   -0.115228
     33          6           0        3.270349   -0.715950   -1.033643
     34          1           0        1.149006   -0.478604   -1.281044
     35          1           0        2.619765   -0.068552    2.739090
     36          1           0        4.935863   -0.473552    1.934839
     37          1           0        3.463176   -0.897049   -2.084126
     38          1           0        0.325749    0.173819    2.364205
     39          1           0       -0.269428   -0.968004    1.167962
     40          6           0       -1.959865   -3.850042   -1.079630
     41          1           0       -2.448830   -4.830621   -1.121567
     42          1           0       -1.410854   -3.703691   -2.017470
     43          1           0       -1.237250   -3.861741   -0.256378
     44         17           0        6.024277   -1.008270   -0.710764
     45          1           0       -3.696252   -2.772722   -1.729322
     46          1           0       -3.988039    0.088108    1.490940
 ---------------------------------------------------------------------
 Rotational constants (GHZ):           0.2942651           0.1413150           0.1071787
 Standard basis: 6-31G (6D, 7F)
 There are   257 symmetry adapted cartesian basis functions of A   symmetry.
 There are   257 symmetry adapted basis functions of A   symmetry.
   257 basis functions,   622 primitive gaussians,   257 cartesian basis functions
    86 alpha electrons       86 beta electrons
       nuclear repulsion energy      1910.1306931805 Hartrees.
 NAtoms=   46 NActive=   46 NUniq=   46 SFac= 1.00D+00 NAtFMM=   60 NAOKFM=F Big=F
 Integral buffers will be    131072 words long.
 Regular integral format.
 Two-electron integral symmetry is turned on.
 One-electron integrals computed using PRISM.
 NBasis=   257 RedAO= T EigKep=  4.37D-04  NBF=   257
 NBsUse=   257 1.00D-06 EigRej= -1.00D+00 NBFU=   257
 ExpMin= 1.43D-01 ExpMax= 2.52D+04 ExpMxC= 3.78D+03 IAcc=3 IRadAn=         5 AccDes= 0.00D+00
 Harris functional with IExCor=  402 and IRadAn=       5 diagonalized for initial guess.
 HarFok:  IExCor=  402 AccDes= 0.00D+00 IRadAn=         5 IDoV= 1 UseB2=F ITyADJ=14
 ICtDFT=  3500011 ScaDFX=  1.000000  1.000000  1.000000  1.000000
 FoFCou: FMM=F IPFlag=           0 FMFlag=      100000 FMFlg1=           0
         NFxFlg=           0 DoJE=T BraDBF=F KetDBF=T FulRan=T
         wScrn=  0.000000 ICntrl=       500 IOpCl=  0 I1Cent=   200000004 NGrid=           0
         NMat0=    1 NMatS0=      1 NMatT0=    0 NMatD0=    1 NMtDS0=    0 NMtDT0=    0
 Petite list used in FoFCou.
 Requested convergence on RMS density matrix=1.00D-08 within 128 cycles.
 Requested convergence on MAX density matrix=1.00D-06.
 Requested convergence on             energy=1.00D-06.
 No special actions if energy rises.
 Integral accuracy reduced to 1.0D-05 until final iterations.
 Initial convergence to 1.0D-05 achieved.  Increase integral accuracy.
 SCF Done:  E(RB3LYP) =  -1312.16575961     A.U. after   15 cycles
            NFock= 15  Conv=0.66D-08     -V/T= 2.0043
 DoSCS=F DFT=T ScalE2(SS,OS)=  1.000000  1.000000
 ExpMin= 1.43D-01 ExpMax= 2.52D+04 ExpMxC= 3.78D+03 IAcc=3 IRadAn=         5 AccDes= 0.00D+00
 HarFok:  IExCor=  205 AccDes= 0.00D+00 IRadAn=         5 IDoV=-2 UseB2=F ITyADJ=14
 ICtDFT= 12500011 ScaDFX=  1.000000  1.000000  1.000000  1.000000
 GSVD:  LWork=        -945 too small for GESVD, short by        4050 words or        4050 for optimal perf.
 Range of M.O.s used for correlation:    28   257
 NBasis=   257 NAE=    86 NBE=    86 NFC=    27 NFV=     0
 NROrb=    230 NOA=    59 NOB=    59 NVA=   171 NVB=   171

 **** Warning!!: The largest alpha MO coefficient is  0.12323154D+02

 Keep R1, R2, and R3 ints in memory in canonical form, NReq=1774769526.
 Orbital symmetries:
       Occupied  (A) (A) (A) (A) (A) (A) (A) (A) (A) (A) (A) (A)
                 (A) (A) (A) (A) (A) (A) (A) (A) (A) (A) (A) (A)
                 (A) (A) (A) (A) (A) (A) (A) (A) (A) (A) (A) (A)
                 (A) (A) (A) (A) (A) (A) (A) (A) (A) (A) (A) (A)
                 (A) (A) (A) (A) (A) (A) (A) (A) (A) (A) (A) (A)
                 (A) (A) (A) (A) (A) (A) (A) (A) (A) (A) (A) (A)
                 (A) (A) (A) (A) (A) (A) (A) (A) (A) (A) (A) (A)
                 (A) (A)
       Virtual   (A) (A) (A) (A) (A) (A) (A) (A) (A) (A) (A) (A)
                 (A) (A) (A) (A) (A) (A) (A) (A) (A) (A) (A) (A)
                 (A) (A) (A) (A) (A) (A) (A) (A) (A) (A) (A) (A)
                 (A) (A) (A) (A) (A) (A) (A) (A) (A) (A) (A) (A)
                 (A) (A) (A) (A) (A) (A) (A) (A) (A) (A) (A) (A)
                 (A) (A) (A) (A) (A) (A) (A) (A) (A) (A) (A) (A)
                 (A) (A) (A) (A) (A) (A) (A) (A) (A) (A) (A) (A)
                 (A) (A) (A) (A) (A) (A) (A) (A) (A) (A) (A) (A)
                 (A) (A) (A) (A) (A) (A) (A) (A) (A) (A) (A) (A)
                 (A) (A) (A) (A) (A) (A) (A) (A) (A) (A) (A) (A)
                 (A) (A) (A) (A) (A) (A) (A) (A) (A) (A) (A) (A)
                 (A) (A) (A) (A) (A) (A) (A) (A) (A) (A) (A) (A)
                 (A) (A) (A) (A) (A) (A) (A) (A) (A) (A) (A) (A)
                 (A) (A) (A) (A) (A) (A) (A) (A) (A) (A) (A) (A)
                 (A) (A) (A)
    24 initial guesses have been made.
 Convergence on wavefunction:    0.001000000000000
 Iteration     1 Dimension    24 NMult     0 NNew     24
 CISAX will form    24 AO SS matrices at one time.
 New state      1 was old state     24
 New state      2 was old state     16
 New state      3 was old state      4
 New state      4 was old state     14
 New state      5 was old state     22
 New state      6 was old state      2
 New state      7 was old state      1
 New state      8 was old state      3
 New state      9 was old state     10
 New state     10 was old state      8
 New state     11 was old state      7
 New state     12 was old state      9
 Vector   4 SDiff=4.06D-01 TDiff=5.16D+00 assumed to be singlet.
 Vector   5 SDiff=2.32D+00 TDiff=2.94D+00 assumed to be singlet.
 Vector   6 SDiff=9.59D+00 TDiff=1.29D+00 assumed to be triplet.
 Vector  10 SDiff=4.14D-01 TDiff=4.68D+00 assumed to be singlet.
 Vector  11 SDiff=2.39D+00 TDiff=2.56D+00 assumed to be singlet.
 Vector  12 SDiff=9.58D+00 TDiff=1.25D+00 assumed to be triplet.
 Iteration     2 Dimension    36 NMult    24 NNew     12
 New state      1 was old state      2
 New state      2 was old state      1
 New state      4 was old state      8
 New state      5 was old state      7
 New state      6 was old state     12
 Iteration     3 Dimension    48 NMult    36 NNew     12
 Iteration     4 Dimension    60 NMult    48 NNew     12
 Iteration     5 Dimension    72 NMult    60 NNew     12
 Iteration     6 Dimension    84 NMult    72 NNew     12
 Iteration     7 Dimension    96 NMult    84 NNew     12
 Iteration     8 Dimension   104 NMult    96 NNew      8
 Iteration     9 Dimension   108 NMult   104 NNew      4
 Iteration    10 Dimension   110 NMult   108 NNew      2
 ***********************************************************************
 Excited states from <AA,BB:AA,BB> singles matrix:
 ***********************************************************************
 
 Ground to excited state transition densities written to RWF  633
 Ground to excited state transition electric dipole moments (Au):
       state          X           Y           Z        Dip. S.      Osc.
         1        -0.0000      0.0000     -0.0000      0.0000      0.0000
         2        -0.0000      0.0000     -0.0000      0.0000      0.0000
         3        -0.0000      0.0000      0.0000      0.0000      0.0000
         4        -0.2265      0.1808     -0.1273      0.1002      0.0126
         5        -0.0757     -0.0843     -0.2018      0.0536      0.0069
         6        -0.0680     -0.1143     -0.0072      0.0177      0.0023
 Ground to excited state transition velocity dipole moments (Au):
       state          X           Y           Z        Dip. S.      Osc.
         1         0.0000     -0.0000      0.0000      0.0000      0.0000
         2         0.0000     -0.0000      0.0000      0.0000      0.0000
         3        -0.0000     -0.0000     -0.0000      0.0000      0.0000
         4         0.0309     -0.0279      0.0221      0.0022      0.0078
         5         0.0123      0.0171      0.0373      0.0018      0.0063
         6         0.0131      0.0204     -0.0000      0.0006      0.0020
 Ground to excited state transition magnetic dipole moments (Au):
       state          X           Y           Z
         1         0.0000     -0.0000      0.0000
         2        -0.0000     -0.0000      0.0000
         3        -0.0000      0.0000      0.0000
         4         0.0782     -0.1370     -0.1392
         5        -0.0963     -0.2926      0.0383
         6        -0.0545     -0.0491     -0.0190
 Ground to excited state transition velocity quadrupole moments (Au):
       state          XX          YY          ZZ          XY          XZ          YZ
         1         0.0000      0.0000      0.0000      0.0000      0.0000      0.0000
         2        -0.0000     -0.0000      0.0000      0.0000      0.0000     -0.0000
         3        -0.0000      0.0000      0.0000     -0.0000      0.0000     -0.0000
         4         0.2383     -0.2234      0.0204      0.0029      0.1142     -0.0037
         5        -0.0562      0.0895      0.0566      0.0696      0.2297     -0.0223
         6        -0.0387      0.1190     -0.0074     -0.0374      0.0204     -0.0321
 <0|del|b> * <b|rxdel|0> + <0|del|b> * <b|delr+rdel|0>
 Rotatory Strengths (R) in cgs (10**-40 erg-esu-cm/Gauss)
       state          XX          YY          ZZ    R(velocity)    E-M Angle
         1         0.0000      0.0000     -0.0000      0.0000       90.00
         2         0.0000      0.0000     -0.0000      0.0000       90.00
         3        -0.0000      0.0000     -0.0000     -0.0000       90.00
         4         7.4649     -1.5772      5.9263      3.9380       71.44
         5        -8.9935     -4.8079     -3.6379     -5.8131      111.01
         6        -2.5430     -2.0305     -1.5785     -2.0507      158.99
 1/2[<0|r|b>*<b|rxdel|0> + (<0|rxdel|b>*<b|r|0>)*]
 Rotatory Strengths (R) in cgs (10**-40 erg-esu-cm/Gauss)
       state          XX          YY          ZZ     R(length)
         1         0.0000      0.0000      0.0000      0.0000
         2        -0.0000      0.0000      0.0000      0.0000
         3        -0.0000     -0.0000     -0.0000     -0.0000
         4        12.5213     17.5117    -12.5296      5.8345
         5        -5.1550    -17.4396      5.4640     -5.7102
         6        -2.6194     -3.9693     -0.0962     -2.2283
  1/2[<0|del|b>*<b|r|0> + (<0|r|b>*<b|del|0>)*] (Au)
       state          X           Y           Z        Dip. S.   Osc.(frdel)
         1        -0.0000     -0.0000     -0.0000      0.0000      0.0000
         2        -0.0000     -0.0000     -0.0000      0.0000      0.0000
         3         0.0000     -0.0000     -0.0000      0.0000      0.0000
         4        -0.0070     -0.0050     -0.0028      0.0149      0.0099
         5        -0.0009     -0.0014     -0.0075      0.0099      0.0066
         6        -0.0009     -0.0023      0.0000      0.0032      0.0021

 Excitation energies and oscillator strengths:
 
 Excited State   1:      Triplet-A      3.6387 eV  340.74 nm  f=0.0000  <S**2>=2.000
      83 -> 89         0.18961
      84 -> 90         0.23654
      85 -> 87        -0.10922
      85 -> 88        -0.16204
      85 -> 89         0.38052
      85 -> 91         0.12117
      85 -> 92        -0.10058
      86 -> 88        -0.11049
      86 -> 90         0.36290
 This state for optimization and/or second-order correction.
 Total Energy, E(TD-HF/TD-DFT) =  -1312.03203907    
 Copying the excited state density for this state as the 1-particle RhoCI density.
 
 Excited State   2:      Triplet-A      3.7059 eV  334.56 nm  f=0.0000  <S**2>=2.000
      81 -> 87        -0.42305
      83 -> 88         0.37386
      85 -> 87         0.11238
      85 -> 88        -0.28487
      86 -> 88         0.17412
 
 Excited State   3:      Triplet-A      3.9490 eV  313.96 nm  f=0.0000  <S**2>=2.000
      82 -> 89        -0.14225
      82 -> 90        -0.10796
      82 -> 91         0.27368
      82 -> 93        -0.22962
      84 -> 89         0.16737
      84 -> 90         0.14927
      84 -> 91        -0.34982
      84 -> 93         0.13972
      86 -> 89        -0.15891
      86 -> 91         0.29080
      86 -> 93        -0.13000
 
 Excited State   4:      Singlet-A      5.1455 eV  240.96 nm  f=0.0126  <S**2>=0.000
      81 -> 88        -0.15822
      83 -> 90        -0.10743
      84 -> 88        -0.11115
      84 -> 89         0.14409
      85 -> 87         0.34981
      85 -> 88         0.15843
      85 -> 89         0.13576
      85 -> 90        -0.24483
      86 -> 87        -0.26285
      86 -> 88        -0.18424
      86 -> 89         0.26704
 
 Excited State   5:      Singlet-A      5.2573 eV  235.83 nm  f=0.0069  <S**2>=0.000
      81 -> 88        -0.26772
      83 -> 87        -0.24891
      84 -> 89        -0.14470
      85 -> 87         0.30867
      85 -> 90         0.28330
      86 -> 87        -0.20853
      86 -> 88         0.13085
      86 -> 89        -0.27030
 
 Excited State   6:      Singlet-A      5.3644 eV  231.12 nm  f=0.0023  <S**2>=0.000
      84 -> 87         0.10549
      85 -> 87         0.38737
      85 -> 88        -0.11240
      86 -> 87         0.54392
      86 -> 88        -0.13201
 SavETr:  write IOETrn=   770 NScale= 10 NData=  16 NLR=1 NState=    6 LETran=     118.

 **********************************************************************

            Population analysis using the SCF Density.

 **********************************************************************

 Orbital symmetries:
       Occupied  (A) (A) (A) (A) (A) (A) (A) (A) (A) (A) (A) (A)
                 (A) (A) (A) (A) (A) (A) (A) (A) (A) (A) (A) (A)
                 (A) (A) (A) (A) (A) (A) (A) (A) (A) (A) (A) (A)
                 (A) (A) (A) (A) (A) (A) (A) (A) (A) (A) (A) (A)
                 (A) (A) (A) (A) (A) (A) (A) (A) (A) (A) (A) (A)
                 (A) (A) (A) (A) (A) (A) (A) (A) (A) (A) (A) (A)
                 (A) (A) (A) (A) (A) (A) (A) (A) (A) (A) (A) (A)
                 (A) (A)
       Virtual   (A) (A) (A) (A) (A) (A) (A) (A) (A) (A) (A) (A)
                 (A) (A) (A) (A) (A) (A) (A) (A) (A) (A) (A) (A)
                 (A) (A) (A) (A) (A) (A) (A) (A) (A) (A) (A) (A)
                 (A) (A) (A) (A) (A) (A) (A) (A) (A) (A) (A) (A)
                 (A) (A) (A) (A) (A) (A) (A) (A) (A) (A) (A) (A)
                 (A) (A) (A) (A) (A) (A) (A) (A) (A) (A) (A) (A)
                 (A) (A) (A) (A) (A) (A) (A) (A) (A) (A) (A) (A)
                 (A) (A) (A) (A) (A) (A) (A) (A) (A) (A) (A) (A)
                 (A) (A) (A) (A) (A) (A) (A) (A) (A) (A) (A) (A)
                 (A) (A) (A) (A) (A) (A) (A) (A) (A) (A) (A) (A)
                 (A) (A) (A) (A) (A) (A) (A) (A) (A) (A) (A) (A)
                 (A) (A) (A) (A) (A) (A) (A) (A) (A) (A) (A) (A)
                 (A) (A) (A) (A) (A) (A) (A) (A) (A) (A) (A) (A)
                 (A) (A) (A) (A) (A) (A) (A) (A) (A) (A) (A) (A)
                 (A) (A) (A)
 The electronic state is 1-A.
 Alpha  occ. eigenvalues -- -101.52077 -10.25285 -10.20462 -10.20200 -10.20168
 Alpha  occ. eigenvalues --  -10.19763 -10.19583 -10.19565 -10.19448 -10.19407
 Alpha  occ. eigenvalues --  -10.19332 -10.19172 -10.18998 -10.18991 -10.18937
 Alpha  occ. eigenvalues --  -10.18284 -10.18125 -10.18017 -10.17621 -10.17608
 Alpha  occ. eigenvalues --  -10.17580 -10.17446 -10.17338  -9.45336  -7.21708
 Alpha  occ. eigenvalues --   -7.20602  -7.20589  -0.88703  -0.86878  -0.84228
 Alpha  occ. eigenvalues --   -0.83544  -0.79284  -0.78731  -0.76643  -0.76125
 Alpha  occ. eigenvalues --   -0.75202  -0.73863  -0.69438  -0.68481  -0.67885
 Alpha  occ. eigenvalues --   -0.67560  -0.62521  -0.61036  -0.59772  -0.59054
 Alpha  occ. eigenvalues --   -0.57013  -0.55837  -0.50943  -0.50694  -0.48807
 Alpha  occ. eigenvalues --   -0.48734  -0.47790  -0.46431  -0.46197  -0.45013
 Alpha  occ. eigenvalues --   -0.43831  -0.43462  -0.42849  -0.42629  -0.41940
 Alpha  occ. eigenvalues --   -0.41364  -0.41162  -0.40828  -0.40561  -0.40228
 Alpha  occ. eigenvalues --   -0.39358  -0.38589  -0.38261  -0.38083  -0.37309
 Alpha  occ. eigenvalues --   -0.36613  -0.36006  -0.35560  -0.35094  -0.33867
 Alpha  occ. eigenvalues --   -0.33198  -0.32722  -0.31861  -0.30645  -0.30503
 Alpha  occ. eigenvalues --   -0.26286  -0.25794  -0.24595  -0.23353  -0.23130
 Alpha  occ. eigenvalues --   -0.22956
 Alpha virt. eigenvalues --   -0.01253  -0.00905   0.00087   0.00661   0.01807
 Alpha virt. eigenvalues --    0.01838   0.02874   0.08114   0.10392   0.10925
 Alpha virt. eigenvalues --    0.10983   0.12006   0.12469   0.12777   0.13295
 Alpha virt. eigenvalues --    0.13697   0.13842   0.14178   0.14758   0.15756
 Alpha virt. eigenvalues --    0.16011   0.16227   0.17189   0.17708   0.18447
 Alpha virt. eigenvalues --    0.18548   0.19025   0.19188   0.20188   0.20355
 Alpha virt. eigenvalues --    0.20971   0.21795   0.22889   0.23586   0.24437
 Alpha virt. eigenvalues --    0.24471   0.25356   0.25745   0.27076   0.27947
 Alpha virt. eigenvalues --    0.30188   0.30820   0.31590   0.31764   0.32708
 Alpha virt. eigenvalues --    0.33497   0.35522   0.38357   0.38869   0.40072
 Alpha virt. eigenvalues --    0.42176   0.43787   0.44463   0.45431   0.45707
 Alpha virt. eigenvalues --    0.46896   0.47757   0.49812   0.50632   0.52127
 Alpha virt. eigenvalues --    0.52172   0.52921   0.53846   0.54567   0.55303
 Alpha virt. eigenvalues --    0.56310   0.56842   0.57304   0.57895   0.58364
 Alpha virt. eigenvalues --    0.58449   0.58979   0.59546   0.59849   0.60380
 Alpha virt. eigenvalues --    0.60878   0.61393   0.61517   0.61895   0.62583
 Alpha virt. eigenvalues --    0.62747   0.63746   0.64062   0.64775   0.65859
 Alpha virt. eigenvalues --    0.66075   0.66767   0.67213   0.68115   0.69053
 Alpha virt. eigenvalues --    0.69905   0.70461   0.72466   0.72971   0.73591
 Alpha virt. eigenvalues --    0.74187   0.75788   0.76463   0.77016   0.77654
 Alpha virt. eigenvalues --    0.77820   0.78782   0.79120   0.79519   0.80117
 Alpha virt. eigenvalues --    0.82032   0.82703   0.83901   0.84922   0.85638
 Alpha virt. eigenvalues --    0.86868   0.87526   0.87607   0.89190   0.90346
 Alpha virt. eigenvalues --    0.90587   0.91320   0.92301   0.92737   0.93323
 Alpha virt. eigenvalues --    0.93920   0.95113   0.96096   0.96473   0.96553
 Alpha virt. eigenvalues --    0.97053   0.97169   0.97637   0.98187   1.00146
 Alpha virt. eigenvalues --    1.00581   1.01323   1.01498   1.02931   1.03620
 Alpha virt. eigenvalues --    1.04694   1.06299   1.06739   1.07235   1.09403
 Alpha virt. eigenvalues --    1.12262   1.12999   1.14707   1.16756   1.17237
 Alpha virt. eigenvalues --    1.17591   1.19132   1.19907   1.20703   1.22949
 Alpha virt. eigenvalues --    1.23149   1.25217   1.26861   1.27308   1.30546
 Alpha virt. eigenvalues --    1.36551   1.41296   1.42201   1.42842   1.46206
 Alpha virt. eigenvalues --    1.47636   1.49021   1.49814   1.55774   1.61357
 Alpha virt. eigenvalues --    1.63411   1.65439   1.73559   1.89031   1.94248
 Alpha virt. eigenvalues --    1.96123
          Condensed to atoms (all electrons):
               1          2          3          4          5          6
     1  C    5.164989   0.306246  -0.050552   0.005070  -0.000211   0.001109
     2  C    0.306246   4.788896   0.506478  -0.040301   0.005954  -0.026690
     3  C   -0.050552   0.506478   5.073476   0.512591  -0.045410  -0.048694
     4  C    0.005070  -0.040301   0.512591   4.868821   0.316446   0.497001
     5  C   -0.000211   0.005954  -0.045410   0.316446   5.168520  -0.053724
     6  C    0.001109  -0.026690  -0.048694   0.497001  -0.053724   5.099597
     7  C    0.006156  -0.037514  -0.049396  -0.036300   0.006205   0.501278
     8  C   -0.000223   0.005183   0.000886   0.005143  -0.000165  -0.033426
     9  C   -0.036895   0.537151  -0.052281  -0.044419   0.000762  -0.066582
    10  H    0.366573  -0.032910  -0.002579   0.000119   0.000000   0.000007
    11  H    0.366242  -0.033105  -0.002796   0.000031   0.000002   0.000019
    12  H    0.366861  -0.035245   0.003291  -0.000187   0.000002  -0.000014
    13  H   -0.004975  -0.044660   0.345949  -0.032602  -0.007439   0.004740
    14  H   -0.000002   0.000441  -0.001727  -0.035581   0.360343   0.004072
    15  H    0.000003  -0.000204  -0.000249  -0.031421   0.365997  -0.003602
    16  H    0.000002  -0.000198   0.000766  -0.030536   0.363763  -0.006139
    17  H   -0.007131  -0.034042   0.004997   0.000847   0.000010   0.004054
    18  C    0.000000   0.000000  -0.000000   0.000012   0.000019   0.000721
    19  C    0.000000  -0.000000   0.000003   0.000014  -0.000111   0.005434
    20  C   -0.000000   0.000025  -0.000013  -0.004888   0.001221  -0.026099
    21  C    0.000004   0.000112   0.007594  -0.063131  -0.008719   0.307699
    22  C   -0.000000   0.000007  -0.000050  -0.001016  -0.001327  -0.054828
    23  C    0.000000  -0.000000   0.000001   0.000140  -0.000041   0.005688
    24  H   -0.000000  -0.000000   0.000000   0.000000   0.000000  -0.000007
    25  H   -0.000000  -0.000012  -0.000045   0.001045  -0.000107  -0.005453
    26  H    0.000000  -0.000004   0.000020  -0.000191   0.000119   0.000094
    27  H   -0.000000  -0.000000  -0.000000  -0.000000  -0.000001  -0.000162
    28  C    0.000005  -0.000078  -0.000006  -0.000027   0.000000   0.001447
    29  C    0.000002   0.000284  -0.000001  -0.000117   0.000002  -0.000051
    30  C   -0.000002   0.000027   0.000001   0.000000  -0.000000  -0.000247
    31  C    0.000000   0.000000  -0.000000  -0.000000   0.000000   0.000003
    32  C   -0.000000  -0.000000   0.000000  -0.000000  -0.000000   0.000000
    33  C    0.000000  -0.000007   0.000000   0.000000  -0.000000   0.000014
    34  H   -0.000001  -0.000066  -0.000022   0.000068  -0.000002   0.000801
    35  H   -0.000000  -0.000001   0.000000  -0.000000  -0.000000  -0.000003
    36  H   -0.000000  -0.000000   0.000000   0.000000  -0.000000  -0.000000
    37  H    0.000000  -0.000000  -0.000000   0.000000  -0.000000  -0.000000
    38  H    0.000003   0.000022   0.000006  -0.000156   0.000002   0.001513
    39  H    0.000001  -0.000182  -0.000015   0.000461  -0.000001  -0.012990
    40  C   -0.000000  -0.000000   0.000000  -0.000002   0.000001  -0.000196
    41  H   -0.000000   0.000000  -0.000000   0.000000  -0.000000   0.000003
    42  H    0.000000   0.000000  -0.000000  -0.000000  -0.000000   0.000011
    43  H   -0.000000  -0.000000  -0.000000  -0.000000  -0.000000  -0.000056
    44  Cl   0.000000   0.000000  -0.000000   0.000000   0.000000   0.000000
    45  H   -0.000000  -0.000000  -0.000000   0.000006   0.000015  -0.000217
    46  H   -0.000000  -0.000014  -0.000099   0.001895  -0.000387  -0.000822
               7          8          9         10         11         12
     1  C    0.006156  -0.000223  -0.036895   0.366573   0.366242   0.366861
     2  C   -0.037514   0.005183   0.537151  -0.032910  -0.033105  -0.035245
     3  C   -0.049396   0.000886  -0.052281  -0.002579  -0.002796   0.003291
     4  C   -0.036300   0.005143  -0.044419   0.000119   0.000031  -0.000187
     5  C    0.006205  -0.000165   0.000762   0.000000   0.000002   0.000002
     6  C    0.501278  -0.033426  -0.066582   0.000007   0.000019  -0.000014
     7  C    4.955284   0.289193   0.464361  -0.000203  -0.000198   0.000375
     8  C    0.289193   5.289420  -0.057283   0.000003   0.000002   0.000001
     9  C    0.464361  -0.057283   5.106576   0.000262  -0.000154  -0.001388
    10  H   -0.000203   0.000003   0.000262   0.578372  -0.034008  -0.029127
    11  H   -0.000198   0.000002  -0.000154  -0.034008   0.580151  -0.029683
    12  H    0.000375   0.000001  -0.001388  -0.029127  -0.029683   0.574634
    13  H    0.000829   0.000011   0.004724   0.001852   0.001436   0.000047
    14  H   -0.000162   0.000002  -0.000012   0.000001  -0.000001   0.000000
    15  H    0.000017  -0.000000   0.000018  -0.000000   0.000000  -0.000000
    16  H    0.000030   0.000004   0.000016   0.000000  -0.000000  -0.000000
    17  H   -0.037530  -0.007042   0.343720   0.000111   0.000117   0.005638
    18  C    0.000015  -0.000010  -0.000000   0.000000  -0.000000   0.000000
    19  C    0.000040  -0.000043   0.000002   0.000000  -0.000000  -0.000000
    20  C   -0.002894  -0.002743  -0.000048  -0.000000   0.000000   0.000000
    21  C   -0.058904  -0.015014   0.008199  -0.000000  -0.000000  -0.000000
    22  C   -0.002358  -0.000626  -0.000083   0.000000  -0.000000   0.000000
    23  C    0.000170  -0.000155   0.000001  -0.000000   0.000000  -0.000000
    24  H    0.000000  -0.000000   0.000000   0.000000  -0.000000  -0.000000
    25  H    0.000610   0.000105  -0.000036   0.000000  -0.000000   0.000000
    26  H    0.000187   0.004030  -0.000150  -0.000000   0.000000  -0.000000
    27  H   -0.000001  -0.000001  -0.000000   0.000000  -0.000000   0.000000
    28  C   -0.002115  -0.056248  -0.002356  -0.000000  -0.000000  -0.000001
    29  C   -0.049513   0.301797  -0.003315  -0.000000   0.000000  -0.000003
    30  C   -0.001114  -0.029647   0.001473  -0.000000  -0.000000  -0.000000
    31  C   -0.000123   0.006140  -0.000059  -0.000000  -0.000000  -0.000000
    32  C    0.000009   0.000256  -0.000000  -0.000000   0.000000   0.000000
    33  C    0.000166   0.006013  -0.000053   0.000000  -0.000000   0.000000
    34  H    0.004044  -0.007094   0.000696   0.000000  -0.000000   0.000000
    35  H    0.000217  -0.007462  -0.000033  -0.000000   0.000000  -0.000000
    36  H    0.000001  -0.000143  -0.000000   0.000000  -0.000000  -0.000000
    37  H    0.000005  -0.000154   0.000001  -0.000000  -0.000000  -0.000000
    38  H   -0.034953   0.357294  -0.006546   0.000000  -0.000000   0.000000
    39  H   -0.033462   0.351937   0.006160  -0.000000  -0.000000   0.000000
    40  C    0.000005   0.000008  -0.000000  -0.000000   0.000000  -0.000000
    41  H   -0.000000  -0.000000   0.000000   0.000000  -0.000000   0.000000
    42  H    0.000000   0.000001  -0.000000  -0.000000   0.000000   0.000000
    43  H    0.000009  -0.000118   0.000000  -0.000000   0.000000   0.000000
    44  Cl  -0.000000   0.000005   0.000000   0.000000  -0.000000  -0.000000
    45  H    0.000001  -0.000005   0.000000  -0.000000   0.000000   0.000000
    46  H    0.000293  -0.000142   0.000038  -0.000000   0.000000   0.000000
              13         14         15         16         17         18
     1  C   -0.004975  -0.000002   0.000003   0.000002  -0.007131   0.000000
     2  C   -0.044660   0.000441  -0.000204  -0.000198  -0.034042   0.000000
     3  C    0.345949  -0.001727  -0.000249   0.000766   0.004997  -0.000000
     4  C   -0.032602  -0.035581  -0.031421  -0.030536   0.000847   0.000012
     5  C   -0.007439   0.360343   0.365997   0.363763   0.000010   0.000019
     6  C    0.004740   0.004072  -0.003602  -0.006139   0.004054   0.000721
     7  C    0.000829  -0.000162   0.000017   0.000030  -0.037530   0.000015
     8  C    0.000011   0.000002  -0.000000   0.000004  -0.007042  -0.000010
     9  C    0.004724  -0.000012   0.000018   0.000016   0.343720  -0.000000
    10  H    0.001852   0.000001  -0.000000   0.000000   0.000111   0.000000
    11  H    0.001436  -0.000001   0.000000  -0.000000   0.000117  -0.000000
    12  H    0.000047   0.000000  -0.000000  -0.000000   0.005638   0.000000
    13  H    0.608932   0.006101   0.000185   0.000165  -0.000206  -0.000000
    14  H    0.006101   0.587028  -0.029231  -0.030027  -0.000000  -0.000000
    15  H    0.000185  -0.029231   0.572253  -0.034504  -0.000000  -0.000003
    16  H    0.000165  -0.030027  -0.034504   0.581162  -0.000000   0.000008
    17  H   -0.000206  -0.000000  -0.000000  -0.000000   0.595025  -0.000000
    18  C   -0.000000  -0.000000  -0.000003   0.000008  -0.000000   4.924680
    19  C   -0.000000   0.000001  -0.000148   0.000040  -0.000000   0.352151
    20  C   -0.000004   0.000112   0.002132  -0.000081  -0.000002  -0.061718
    21  C   -0.000212   0.000612   0.002639   0.001765  -0.000197  -0.001302
    22  C    0.000002   0.000027  -0.000019   0.000723   0.000001  -0.044549
    23  C   -0.000000  -0.000001   0.000015  -0.000200  -0.000000   0.675063
    24  H   -0.000000  -0.000000  -0.000000  -0.000000  -0.000000   0.359801
    25  H    0.000001   0.000003   0.000280   0.000030   0.000001   0.004884
    26  H   -0.000000   0.000001   0.000005  -0.000029   0.000003  -0.000774
    27  H    0.000000   0.000000  -0.000000   0.000002   0.000000  -0.036415
    28  C   -0.000000  -0.000000   0.000000   0.000000   0.000694  -0.000000
    29  C    0.000000  -0.000000  -0.000000  -0.000000   0.004808  -0.000001
    30  C    0.000000   0.000000   0.000000  -0.000000   0.001636   0.000000
    31  C   -0.000000  -0.000000  -0.000000   0.000000   0.000065   0.000000
    32  C    0.000000  -0.000000  -0.000000   0.000000  -0.000021  -0.000000
    33  C    0.000000  -0.000000  -0.000000   0.000000  -0.000094   0.000000
    34  H    0.000000  -0.000000  -0.000001   0.000000  -0.000010   0.000001
    35  H    0.000000   0.000000   0.000000  -0.000000   0.000111  -0.000000
    36  H    0.000000   0.000000   0.000000  -0.000000  -0.000001   0.000000
    37  H   -0.000000   0.000000   0.000000  -0.000000  -0.000000   0.000000
    38  H   -0.000000  -0.000000   0.000000  -0.000000   0.000837  -0.000001
    39  H   -0.000000  -0.000000  -0.000002   0.000002   0.000222   0.000147
    40  C   -0.000000   0.000000   0.000003  -0.000000   0.000000  -0.053378
    41  H    0.000000  -0.000000  -0.000000   0.000000  -0.000000  -0.002612
    42  H   -0.000000   0.000000  -0.000000   0.000000   0.000000   0.005055
    43  H    0.000000  -0.000000   0.000000   0.000000  -0.000000  -0.001857
    44  Cl  -0.000000  -0.000000   0.000000  -0.000000   0.000000  -0.000000
    45  H    0.000000  -0.000001   0.000050  -0.000001  -0.000000  -0.046702
    46  H    0.000002  -0.000086  -0.000108   0.003341   0.000000  -0.000305
              19         20         21         22         23         24
     1  C    0.000000  -0.000000   0.000004  -0.000000   0.000000  -0.000000
     2  C   -0.000000   0.000025   0.000112   0.000007  -0.000000  -0.000000
     3  C    0.000003  -0.000013   0.007594  -0.000050   0.000001   0.000000
     4  C    0.000014  -0.004888  -0.063131  -0.001016   0.000140   0.000000
     5  C   -0.000111   0.001221  -0.008719  -0.001327  -0.000041   0.000000
     6  C    0.005434  -0.026099   0.307699  -0.054828   0.005688  -0.000007
     7  C    0.000040  -0.002894  -0.058904  -0.002358   0.000170   0.000000
     8  C   -0.000043  -0.002743  -0.015014  -0.000626  -0.000155  -0.000000
     9  C    0.000002  -0.000048   0.008199  -0.000083   0.000001   0.000000
    10  H    0.000000  -0.000000  -0.000000   0.000000  -0.000000   0.000000
    11  H   -0.000000   0.000000  -0.000000  -0.000000   0.000000  -0.000000
    12  H   -0.000000   0.000000  -0.000000   0.000000  -0.000000  -0.000000
    13  H   -0.000000  -0.000004  -0.000212   0.000002  -0.000000  -0.000000
    14  H    0.000001   0.000112   0.000612   0.000027  -0.000001  -0.000000
    15  H   -0.000148   0.002132   0.002639  -0.000019   0.000015  -0.000000
    16  H    0.000040  -0.000081   0.001765   0.000723  -0.000200  -0.000000
    17  H   -0.000000  -0.000002  -0.000197   0.000001  -0.000000  -0.000000
    18  C    0.352151  -0.061718  -0.001302  -0.044549   0.675063   0.359801
    19  C    5.138157   0.321460  -0.026043  -0.041717  -0.036737  -0.051487
    20  C    0.321460   5.009858   0.646330  -0.047650  -0.008625   0.005464
    21  C   -0.026043   0.646330   4.977445   0.326661  -0.041609  -0.000279
    22  C   -0.041717  -0.047650   0.326661   5.225979   0.309830   0.006420
    23  C   -0.036737  -0.008625  -0.041609   0.309830   4.937280  -0.038626
    24  H   -0.051487   0.005464  -0.000279   0.006420  -0.038626   0.614378
    25  H   -0.048648   0.359283  -0.047468   0.006664  -0.000206  -0.000123
    26  H    0.001278  -0.001326  -0.041585   0.358997  -0.035813  -0.000158
    27  H    0.005603   0.000300   0.004012  -0.046382   0.357352  -0.007603
    28  C    0.000001   0.000040   0.000003  -0.000003  -0.000000   0.000000
    29  C   -0.000001  -0.000242  -0.000479   0.000110  -0.000000  -0.000000
    30  C    0.000000  -0.000002  -0.000003   0.000000   0.000000   0.000000
    31  C    0.000000   0.000000   0.000000  -0.000000   0.000000   0.000000
    32  C   -0.000000   0.000000  -0.000000   0.000000  -0.000000  -0.000000
    33  C   -0.000000   0.000007   0.000004  -0.000000  -0.000000  -0.000000
    34  H   -0.000024   0.000883   0.000052   0.000013  -0.000001  -0.000000
    35  H    0.000000  -0.000000   0.000000   0.000000  -0.000000  -0.000000
    36  H    0.000000  -0.000000  -0.000000  -0.000000  -0.000000   0.000000
    37  H    0.000000  -0.000000  -0.000000   0.000000   0.000000   0.000000
    38  H    0.000003   0.000100   0.000639   0.000037  -0.000028  -0.000000
    39  H   -0.000280   0.004823   0.016764  -0.001300   0.000288   0.000001
    40  C    0.312294  -0.051812  -0.000452   0.001043  -0.000268  -0.001772
    41  H   -0.032593   0.004954  -0.000087  -0.000011   0.000094   0.003397
    42  H   -0.032869  -0.002700   0.000129  -0.000018  -0.000104  -0.000033
    43  H   -0.037528  -0.001680   0.001056  -0.000015   0.001492  -0.000273
    44  Cl   0.000000   0.000000   0.000000   0.000000  -0.000000  -0.000000
    45  H    0.374346  -0.045104  -0.000212   0.000775   0.000479  -0.001543
    46  H    0.000719  -0.000142  -0.040566   0.359039  -0.035546  -0.000143
              25         26         27         28         29         30
     1  C   -0.000000   0.000000  -0.000000   0.000005   0.000002  -0.000002
     2  C   -0.000012  -0.000004  -0.000000  -0.000078   0.000284   0.000027
     3  C   -0.000045   0.000020  -0.000000  -0.000006  -0.000001   0.000001
     4  C    0.001045  -0.000191  -0.000000  -0.000027  -0.000117   0.000000
     5  C   -0.000107   0.000119  -0.000001   0.000000   0.000002  -0.000000
     6  C   -0.005453   0.000094  -0.000162   0.001447  -0.000051  -0.000247
     7  C    0.000610   0.000187  -0.000001  -0.002115  -0.049513  -0.001114
     8  C    0.000105   0.004030  -0.000001  -0.056248   0.301797  -0.029647
     9  C   -0.000036  -0.000150  -0.000000  -0.002356  -0.003315   0.001473
    10  H    0.000000  -0.000000   0.000000  -0.000000  -0.000000  -0.000000
    11  H   -0.000000   0.000000  -0.000000  -0.000000   0.000000  -0.000000
    12  H    0.000000  -0.000000   0.000000  -0.000001  -0.000003  -0.000000
    13  H    0.000001  -0.000000   0.000000  -0.000000   0.000000   0.000000
    14  H    0.000003   0.000001   0.000000  -0.000000  -0.000000   0.000000
    15  H    0.000280   0.000005  -0.000000   0.000000  -0.000000   0.000000
    16  H    0.000030  -0.000029   0.000002   0.000000  -0.000000  -0.000000
    17  H    0.000001   0.000003   0.000000   0.000694   0.004808   0.001636
    18  C    0.004884  -0.000774  -0.036415  -0.000000  -0.000001   0.000000
    19  C   -0.048648   0.001278   0.005603   0.000001  -0.000001   0.000000
    20  C    0.359283  -0.001326   0.000300   0.000040  -0.000242  -0.000002
    21  C   -0.047468  -0.041585   0.004012   0.000003  -0.000479  -0.000003
    22  C    0.006664   0.358997  -0.046382  -0.000003   0.000110   0.000000
    23  C   -0.000206  -0.035813   0.357352  -0.000000  -0.000000   0.000000
    24  H   -0.000123  -0.000158  -0.007603   0.000000  -0.000000   0.000000
    25  H    0.612588  -0.000173   0.000007  -0.000174  -0.000040   0.000001
    26  H   -0.000173   0.611383  -0.000669  -0.000004   0.000098   0.000000
    27  H    0.000007  -0.000669   0.610767   0.000000   0.000000   0.000000
    28  C   -0.000174  -0.000004   0.000000   4.994350   0.515804  -0.069170
    29  C   -0.000040   0.000098   0.000000   0.515804   4.826125   0.523205
    30  C    0.000001   0.000000   0.000000  -0.069170   0.523205   5.001515
    31  C   -0.000000  -0.000000  -0.000000  -0.034863  -0.035756   0.486498
    32  C    0.000000   0.000000  -0.000000  -0.039287  -0.038382  -0.040518
    33  C    0.000002  -0.000000   0.000000   0.493127  -0.030718  -0.035120
    34  H    0.001495  -0.000003   0.000000   0.356099  -0.037757   0.004953
    35  H    0.000000   0.000000   0.000000   0.005478  -0.038180   0.354916
    36  H    0.000000   0.000000   0.000000   0.000627   0.003580  -0.022932
    37  H   -0.000001   0.000000  -0.000000  -0.023524   0.003411   0.000709
    38  H    0.000003   0.000207   0.000001   0.005994  -0.041043  -0.006559
    39  H   -0.000038  -0.001586  -0.000008  -0.006560  -0.034795   0.001551
    40  C   -0.001726   0.000153  -0.000133  -0.000004   0.000003   0.000000
    41  H   -0.000029  -0.000003  -0.000000   0.000000  -0.000000  -0.000000
    42  H    0.003389  -0.000003   0.000003  -0.000002  -0.000001   0.000000
    43  H   -0.000278  -0.000071  -0.000029   0.000015  -0.000001  -0.000000
    44  Cl  -0.000000  -0.000000   0.000000   0.002300   0.000578   0.002282
    45  H   -0.001547  -0.000066  -0.000177   0.000000  -0.000000  -0.000000
    46  H   -0.000156  -0.045503  -0.000760   0.000000  -0.000003  -0.000000
              31         32         33         34         35         36
     1  C    0.000000  -0.000000   0.000000  -0.000001  -0.000000  -0.000000
     2  C    0.000000  -0.000000  -0.000007  -0.000066  -0.000001  -0.000000
     3  C   -0.000000   0.000000   0.000000  -0.000022   0.000000   0.000000
     4  C   -0.000000  -0.000000   0.000000   0.000068  -0.000000   0.000000
     5  C    0.000000  -0.000000  -0.000000  -0.000002  -0.000000  -0.000000
     6  C    0.000003   0.000000   0.000014   0.000801  -0.000003  -0.000000
     7  C   -0.000123   0.000009   0.000166   0.004044   0.000217   0.000001
     8  C    0.006140   0.000256   0.006013  -0.007094  -0.007462  -0.000143
     9  C   -0.000059  -0.000000  -0.000053   0.000696  -0.000033  -0.000000
    10  H   -0.000000  -0.000000   0.000000   0.000000  -0.000000   0.000000
    11  H   -0.000000   0.000000  -0.000000  -0.000000   0.000000  -0.000000
    12  H   -0.000000   0.000000   0.000000   0.000000  -0.000000  -0.000000
    13  H   -0.000000   0.000000   0.000000   0.000000   0.000000   0.000000
    14  H   -0.000000  -0.000000  -0.000000  -0.000000   0.000000   0.000000
    15  H   -0.000000  -0.000000  -0.000000  -0.000001   0.000000   0.000000
    16  H    0.000000   0.000000   0.000000   0.000000  -0.000000  -0.000000
    17  H    0.000065  -0.000021  -0.000094  -0.000010   0.000111  -0.000001
    18  C    0.000000  -0.000000   0.000000   0.000001  -0.000000   0.000000
    19  C    0.000000  -0.000000  -0.000000  -0.000024   0.000000   0.000000
    20  C    0.000000   0.000000   0.000007   0.000883  -0.000000  -0.000000
    21  C    0.000000  -0.000000   0.000004   0.000052   0.000000  -0.000000
    22  C   -0.000000   0.000000  -0.000000   0.000013   0.000000  -0.000000
    23  C    0.000000  -0.000000  -0.000000  -0.000001  -0.000000  -0.000000
    24  H    0.000000  -0.000000  -0.000000  -0.000000  -0.000000   0.000000
    25  H   -0.000000   0.000000   0.000002   0.001495   0.000000   0.000000
    26  H   -0.000000   0.000000  -0.000000  -0.000003   0.000000   0.000000
    27  H   -0.000000  -0.000000   0.000000   0.000000   0.000000   0.000000
    28  C   -0.034863  -0.039287   0.493127   0.356099   0.005478   0.000627
    29  C   -0.035756  -0.038382  -0.030718  -0.037757  -0.038180   0.003580
    30  C    0.486498  -0.040518  -0.035120   0.004953   0.354916  -0.022932
    31  C    5.002940   0.479541  -0.064766   0.000390  -0.038494   0.350910
    32  C    0.479541   5.226250   0.471504   0.005163   0.005340  -0.032053
    33  C   -0.064766   0.471504   5.002121  -0.037052   0.000330   0.003800
    34  H    0.000390   0.005163  -0.037052   0.568343  -0.000180   0.000010
    35  H   -0.038494   0.005340   0.000330  -0.000180   0.584266  -0.004645
    36  H    0.350910  -0.032053   0.003800   0.000010  -0.004645   0.544475
    37  H    0.003796  -0.031998   0.351535  -0.004313   0.000010  -0.000172
    38  H    0.000433   0.000001  -0.000214   0.000200   0.006288  -0.000004
    39  H   -0.000255   0.000022   0.000038   0.000906   0.000127   0.000002
    40  C   -0.000000   0.000000  -0.000000   0.000010   0.000000  -0.000000
    41  H    0.000000  -0.000000   0.000000   0.000000  -0.000000   0.000000
    42  H   -0.000000   0.000000   0.000000   0.000031  -0.000000   0.000000
    43  H   -0.000000  -0.000000   0.000001   0.000015  -0.000000  -0.000000
    44  Cl  -0.061059   0.226653  -0.060515  -0.000118  -0.000122   0.001431
    45  H    0.000000  -0.000000   0.000000   0.000001  -0.000000  -0.000000
    46  H    0.000000  -0.000000   0.000000   0.000000  -0.000000   0.000000
              37         38         39         40         41         42
     1  C    0.000000   0.000003   0.000001  -0.000000  -0.000000   0.000000
     2  C   -0.000000   0.000022  -0.000182  -0.000000   0.000000   0.000000
     3  C   -0.000000   0.000006  -0.000015   0.000000  -0.000000  -0.000000
     4  C    0.000000  -0.000156   0.000461  -0.000002   0.000000  -0.000000
     5  C   -0.000000   0.000002  -0.000001   0.000001  -0.000000  -0.000000
     6  C   -0.000000   0.001513  -0.012990  -0.000196   0.000003   0.000011
     7  C    0.000005  -0.034953  -0.033462   0.000005  -0.000000   0.000000
     8  C   -0.000154   0.357294   0.351937   0.000008  -0.000000   0.000001
     9  C    0.000001  -0.006546   0.006160  -0.000000   0.000000  -0.000000
    10  H   -0.000000   0.000000  -0.000000  -0.000000   0.000000  -0.000000
    11  H   -0.000000  -0.000000  -0.000000   0.000000  -0.000000   0.000000
    12  H   -0.000000   0.000000   0.000000  -0.000000   0.000000   0.000000
    13  H   -0.000000  -0.000000  -0.000000  -0.000000   0.000000  -0.000000
    14  H    0.000000  -0.000000  -0.000000   0.000000  -0.000000   0.000000
    15  H    0.000000   0.000000  -0.000002   0.000003  -0.000000  -0.000000
    16  H   -0.000000  -0.000000   0.000002  -0.000000   0.000000   0.000000
    17  H   -0.000000   0.000837   0.000222   0.000000  -0.000000   0.000000
    18  C    0.000000  -0.000001   0.000147  -0.053378  -0.002612   0.005055
    19  C    0.000000   0.000003  -0.000280   0.312294  -0.032593  -0.032869
    20  C   -0.000000   0.000100   0.004823  -0.051812   0.004954  -0.002700
    21  C   -0.000000   0.000639   0.016764  -0.000452  -0.000087   0.000129
    22  C    0.000000   0.000037  -0.001300   0.001043  -0.000011  -0.000018
    23  C    0.000000  -0.000028   0.000288  -0.000268   0.000094  -0.000104
    24  H    0.000000  -0.000000   0.000001  -0.001772   0.003397  -0.000033
    25  H   -0.000001   0.000003  -0.000038  -0.001726  -0.000029   0.003389
    26  H    0.000000   0.000207  -0.001586   0.000153  -0.000003  -0.000003
    27  H   -0.000000   0.000001  -0.000008  -0.000133  -0.000000   0.000003
    28  C   -0.023524   0.005994  -0.006560  -0.000004   0.000000  -0.000002
    29  C    0.003411  -0.041043  -0.034795   0.000003  -0.000000  -0.000001
    30  C    0.000709  -0.006559   0.001551   0.000000  -0.000000   0.000000
    31  C    0.003796   0.000433  -0.000255  -0.000000   0.000000  -0.000000
    32  C   -0.031998   0.000001   0.000022   0.000000  -0.000000   0.000000
    33  C    0.351535  -0.000214   0.000038  -0.000000   0.000000   0.000000
    34  H   -0.004313   0.000200   0.000906   0.000010   0.000000   0.000031
    35  H    0.000010   0.006288   0.000127   0.000000  -0.000000  -0.000000
    36  H   -0.000172  -0.000004   0.000002  -0.000000   0.000000   0.000000
    37  H    0.543596   0.000002   0.000001  -0.000000  -0.000000  -0.000000
    38  H    0.000002   0.604295  -0.035265  -0.000000   0.000000  -0.000000
    39  H    0.000001  -0.035265   0.577122  -0.000067   0.000002  -0.000002
    40  C   -0.000000  -0.000000  -0.000067   5.154272   0.362812   0.362655
    41  H   -0.000000   0.000000   0.000002   0.362812   0.597125  -0.031863
    42  H   -0.000000  -0.000000  -0.000002   0.362655  -0.031863   0.598199
    43  H   -0.000000  -0.000001   0.000787   0.368975  -0.030568  -0.030698
    44  Cl   0.001493  -0.000000  -0.000000   0.000000  -0.000000  -0.000000
    45  H   -0.000000   0.000000   0.000020  -0.055899  -0.002844  -0.002850
    46  H   -0.000000   0.000011   0.000254  -0.000056   0.000001   0.000001
              43         44         45         46
     1  C   -0.000000   0.000000  -0.000000  -0.000000
     2  C   -0.000000   0.000000  -0.000000  -0.000014
     3  C   -0.000000  -0.000000  -0.000000  -0.000099
     4  C   -0.000000   0.000000   0.000006   0.001895
     5  C   -0.000000   0.000000   0.000015  -0.000387
     6  C   -0.000056   0.000000  -0.000217  -0.000822
     7  C    0.000009  -0.000000   0.000001   0.000293
     8  C   -0.000118   0.000005  -0.000005  -0.000142
     9  C    0.000000   0.000000   0.000000   0.000038
    10  H   -0.000000   0.000000  -0.000000  -0.000000
    11  H    0.000000  -0.000000   0.000000   0.000000
    12  H    0.000000  -0.000000   0.000000   0.000000
    13  H    0.000000  -0.000000   0.000000   0.000002
    14  H   -0.000000  -0.000000  -0.000001  -0.000086
    15  H    0.000000   0.000000   0.000050  -0.000108
    16  H    0.000000  -0.000000  -0.000001   0.003341
    17  H   -0.000000   0.000000  -0.000000   0.000000
    18  C   -0.001857  -0.000000  -0.046702  -0.000305
    19  C   -0.037528   0.000000   0.374346   0.000719
    20  C   -0.001680   0.000000  -0.045104  -0.000142
    21  C    0.001056   0.000000  -0.000212  -0.040566
    22  C   -0.000015   0.000000   0.000775   0.359039
    23  C    0.001492  -0.000000   0.000479  -0.035546
    24  H   -0.000273  -0.000000  -0.001543  -0.000143
    25  H   -0.000278  -0.000000  -0.001547  -0.000156
    26  H   -0.000071  -0.000000  -0.000066  -0.045503
    27  H   -0.000029   0.000000  -0.000177  -0.000760
    28  C    0.000015   0.002300   0.000000   0.000000
    29  C   -0.000001   0.000578  -0.000000  -0.000003
    30  C   -0.000000   0.002282  -0.000000  -0.000000
    31  C   -0.000000  -0.061059   0.000000   0.000000
    32  C   -0.000000   0.226653  -0.000000  -0.000000
    33  C    0.000001  -0.060515   0.000000   0.000000
    34  H    0.000015  -0.000118   0.000001   0.000000
    35  H   -0.000000  -0.000122  -0.000000  -0.000000
    36  H   -0.000000   0.001431  -0.000000   0.000000
    37  H   -0.000000   0.001493  -0.000000  -0.000000
    38  H   -0.000001  -0.000000   0.000000   0.000011
    39  H    0.000787  -0.000000   0.000020   0.000254
    40  C    0.368975   0.000000  -0.055899  -0.000056
    41  H   -0.030568  -0.000000  -0.002844   0.000001
    42  H   -0.030698  -0.000000  -0.002850   0.000001
    43  H    0.581626  -0.000000   0.006018   0.000009
    44  Cl  -0.000000  16.834636   0.000000  -0.000000
    45  H    0.006018   0.000000   0.634382   0.000186
    46  H    0.000009  -0.000000   0.000186   0.605809
 Mulliken charges:
               1
     1  C   -0.483274
     2  C    0.134407
     3  C   -0.202127
     4  C    0.111165
     5  C   -0.471740
     6  C   -0.095303
     7  C    0.117239
     8  C   -0.399689
     9  C   -0.202465
    10  H    0.151526
    11  H    0.151945
    12  H    0.144801
    13  H    0.115122
    14  H    0.138088
    15  H    0.155897
    16  H    0.149897
    17  H    0.123382
    18  C   -0.072927
    19  C   -0.203316
    20  C   -0.099218
    21  C    0.044544
    22  C   -0.354374
    23  C   -0.089932
    24  H    0.112587
    25  H    0.115867
    26  H    0.151536
    27  H    0.114295
    28  C   -0.141562
    29  C    0.130594
    30  C   -0.173450
    31  C   -0.095341
    32  C   -0.232480
    33  C   -0.100125
    34  H    0.142468
    35  H    0.132037
    36  H    0.155115
    37  H    0.155606
    38  H    0.146880
    39  H    0.165168
    40  C   -0.396469
    41  H    0.132223
    42  H    0.131669
    43  H    0.143169
    44  Cl   0.052438
    45  H    0.140888
    46  H    0.153240
 Sum of Mulliken charges =  -0.00000
 Mulliken charges with hydrogens summed into heavy atoms:
               1
     1  C   -0.035002
     2  C    0.134407
     3  C   -0.087004
     4  C    0.111165
     5  C   -0.027858
     6  C   -0.095303
     7  C    0.117239
     8  C   -0.087641
     9  C   -0.079082
    18  C    0.039660
    19  C   -0.062429
    20  C    0.016648
    21  C    0.044544
    22  C   -0.049598
    23  C    0.024364
    28  C    0.000906
    29  C    0.130594
    30  C   -0.041414
    31  C    0.059774
    32  C   -0.232480
    33  C    0.055480
    40  C    0.010591
    44  Cl   0.052438
 Electronic spatial extent (au):  <R**2>=           9995.5018
 Charge=             -0.0000 electrons
 Dipole moment (field-independent basis, Debye):
    X=             -3.1195    Y=              0.5514    Z=              0.7125  Tot=              3.2470
 Quadrupole moment (field-independent basis, Debye-Ang):
   XX=           -158.2878   YY=           -139.3682   ZZ=           -136.6802
   XY=              5.0039   XZ=              5.6386   YZ=              0.3776
 Traceless Quadrupole moment (field-independent basis, Debye-Ang):
   XX=            -13.5090   YY=              5.4105   ZZ=              8.0985
   XY=              5.0039   XZ=              5.6386   YZ=              0.3776
 Octapole moment (field-independent basis, Debye-Ang**2):
  XXX=           -106.0312  YYY=             21.5723  ZZZ=              2.3563  XYY=            -17.5239
  XXY=             17.0148  XXZ=             29.0344  XZZ=             13.9567  YZZ=             -7.5272
  YYZ=            -13.8096  XYZ=              3.6569
 Hexadecapole moment (field-independent basis, Debye-Ang**3):
 XXXX=          -9203.2396 YYYY=          -3985.7770 ZZZZ=           -945.7582 XXXY=            100.2338
 XXXZ=            115.1066 YYYX=             38.2075 YYYZ=            -11.4901 ZZZX=             -8.3374
 ZZZY=              7.3762 XXYY=          -2103.4915 XXZZ=          -1496.0420 YYZZ=           -865.6954
 XXYZ=            -25.0812 YYXZ=             22.4954 ZZXY=             -1.0284
 N-N= 1.910130693180D+03 E-N=-6.888623486559D+03  KE= 1.306493446743D+03
 Unable to Open any file for archive entry.
 1\1\GINC-N2\SP\RB3LYP TD-FC\6-31G\C22H23Cl1\HPCMGAC13\13-Jun-2025\0\\#
  td=(50-50,nstates=3) b3lyp/6-31g\\[No Title]\\0,1\C,0,0.128216,4.8126
 01,-0.151456\C,0,-0.516975,3.445068,-0.092951\C,0,-1.788035,3.227471,-
 0.64946\C,0,-2.411259,1.975422,-0.604045\C,0,-3.77859,1.799477,-1.2332
 8\C,0,-1.745154,0.886543,0.019121\C,0,-0.465672,1.091301,0.581868\C,0,
 0.290252,-0.033482,1.285834\C,0,0.127046,2.364141,0.514421\H,0,0.20016
 2,5.177926,-1.183524\H,0,-0.452622,5.554162,0.412368\H,0,1.139242,4.79
 3869,0.267209\H,0,-2.305197,4.053618,-1.131807\H,0,-4.160347,2.75614,-
 1.602903\H,0,-3.748563,1.099488,-2.076339\H,0,-4.509992,1.399898,-0.52
 0441\H,0,1.117101,2.505682,0.93952\C,0,-3.806148,-2.949646,0.394086\C,
 0,-3.004844,-2.720977,-0.868022\C,0,-2.344395,-1.359326,-0.880129\C,0,
 -2.42731,-0.449205,0.106001\C,0,-3.234838,-0.708737,1.368495\C,0,-3.90
 2627,-2.05992,1.38982\H,0,-4.315033,-3.909226,0.471738\H,0,-1.756707,-
 1.126472,-1.768038\H,0,-2.579082,-0.598259,2.248908\H,0,-4.491439,-2.2
 95926,2.274328\C,0,1.971312,-0.484044,-0.572754\C,0,1.712814,-0.249273
 ,0.789891\C,0,2.795931,-0.248285,1.6825\C,0,4.10538,-0.477457,1.239368
 \C,0,4.318889,-0.70863,-0.115228\C,0,3.270349,-0.71595,-1.033643\H,0,1
 .149006,-0.478604,-1.281044\H,0,2.619765,-0.068552,2.73909\H,0,4.93586
 3,-0.473552,1.934839\H,0,3.463176,-0.897049,-2.084126\H,0,0.325749,0.1
 73819,2.364205\H,0,-0.269428,-0.968004,1.167962\C,0,-1.959865,-3.85004
 2,-1.07963\H,0,-2.44883,-4.830621,-1.121567\H,0,-1.410854,-3.703691,-2
 .01747\H,0,-1.23725,-3.861741,-0.256378\Cl,0,6.024277,-1.00827,-0.7107
 64\H,0,-3.696252,-2.772722,-1.729322\H,0,-3.988039,0.088108,1.49094\\V
 ersion=ES64L-G16RevC.02\State=1-A\HF=-1312.1657596\RMSD=6.578e-09\PG=C
 01 [X(C22H23Cl1)]\\@
 The archive entry for this job was punched.


 Happiness is a conscious choice, not an automatic response.
 -- Mildred Barthel
 Job cpu time:       0 days  0 hours 41 minutes 27.7 seconds.
 Elapsed time:       0 days  0 hours  2 minutes 40.4 seconds.
 File lengths (MBytes):  RWF=    645 Int=      0 D2E=      0 Chk=     21 Scr=      2
 Normal termination of Gaussian 16 at Fri Jun 13 11:29:48 2025.
