 Entering Gaussian System, Link 0=g16
 Input=M1249.gjf
 Output=M1249.log
 Initial command:
 /hpc/softwares/Gaussian/g16/l1.exe "/hpc/home/hpcmgac13/pbs.11113.admin1.x8z/Gau-183664.inp" -scrdir="/hpc/home/hpcmgac13/pbs.11113.admin1.x8z/"
 Default linda workers: n2
 Default is to use  16 SMP processors on each worker.
 Entering Link 1 = /hpc/softwares/Gaussian/g16/l1.exe PID=    183665.
  
 Copyright (c) 1988-2021, Gaussian, Inc.  All Rights Reserved.
  
 This is part of the Gaussian(R) 16 program.  It is based on
 the Gaussian(R) 09 system (copyright 2009, Gaussian, Inc.),
 the Gaussian(R) 03 system (copyright 2003, Gaussian, Inc.),
 the Gaussian(R) 98 system (copyright 1998, Gaussian, Inc.),
 the Gaussian(R) 94 system (copyright 1995, Gaussian, Inc.),
 the Gaussian 92(TM) system (copyright 1992, Gaussian, Inc.),
 the Gaussian 90(TM) system (copyright 1990, Gaussian, Inc.),
 the Gaussian 88(TM) system (copyright 1988, Gaussian, Inc.),
 the Gaussian 86(TM) system (copyright 1986, Carnegie Mellon
 University), and the Gaussian 82(TM) system (copyright 1983,
 Carnegie Mellon University). Gaussian is a federally registered
 trademark of Gaussian, Inc.
  
 This software contains proprietary and confidential information,
 including trade secrets, belonging to Gaussian, Inc.
  
 This software is provided under written license and may be
 used, copied, transmitted, or stored only in accord with that
 written license.
  
 The following legend is applicable only to US Government
 contracts under FAR:
  
                    RESTRICTED RIGHTS LEGEND
  
 Use, reproduction and disclosure by the US Government is
 subject to restrictions as set forth in subparagraphs (a)
 and (c) of the Commercial Computer Software - Restricted
 Rights clause in FAR 52.227-19.
  
 Gaussian, Inc.
 340 Quinnipiac St., Bldg. 40, Wallingford CT 06492
  
  
 ---------------------------------------------------------------
 Warning -- This program may not be used in any manner that
 competes with the business of Gaussian, Inc. or will provide
 assistance to any competitor of Gaussian, Inc.  The licensee
 of this program is prohibited from giving any competitor of
 Gaussian, Inc. access to this program.  By using this program,
 the user acknowledges that Gaussian, Inc. is engaged in the
 business of creating and licensing software in the field of
 computational chemistry and represents and warrants to the
 licensee that it is not a competitor of Gaussian, Inc. and that
 it will not use this program in any manner prohibited above.
 ---------------------------------------------------------------
  

 Cite this work as:
 Gaussian 16, Revision C.02,
 M. J. Frisch, G. W. Trucks, H. B. Schlegel, G. E. Scuseria, 
 M. A. Robb, J. R. Cheeseman, G. Scalmani, V. Barone, 
 G. A. Petersson, H. Nakatsuji, X. Li, M. Caricato, A. V. Marenich, 
 J. Bloino, B. G. Janesko, R. Gomperts, B. Mennucci, H. P. Hratchian, 
 J. V. Ortiz, A. F. Izmaylov, J. L. Sonnenberg, D. Williams-Young, 
 F. Ding, F. Lipparini, F. Egidi, J. Goings, B. Peng, A. Petrone, 
 T. Henderson, D. Ranasinghe, V. G. Zakrzewski, J. Gao, N. Rega, 
 G. Zheng, W. Liang, M. Hada, M. Ehara, K. Toyota, R. Fukuda, 
 J. Hasegawa, M. Ishida, T. Nakajima, Y. Honda, O. Kitao, H. Nakai, 
 T. Vreven, K. Throssell, J. A. Montgomery, Jr., J. E. Peralta, 
 F. Ogliaro, M. J. Bearpark, J. J. Heyd, E. N. Brothers, K. N. Kudin, 
 V. N. Staroverov, T. A. Keith, R. Kobayashi, J. Normand, 
 K. Raghavachari, A. P. Rendell, J. C. Burant, S. S. Iyengar, 
 J. Tomasi, M. Cossi, J. M. Millam, M. Klene, C. Adamo, R. Cammi, 
 J. W. Ochterski, R. L. Martin, K. Morokuma, O. Farkas, 
 J. B. Foresman, and D. J. Fox, Gaussian, Inc., Wallingford CT, 2019.
 
 ******************************************
 Gaussian 16:  ES64L-G16RevC.02  7-Dec-2021
                13-Jun-2025 
 ******************************************
 SetLPE:    new flags="-opt 'Tsnet.Node.lindarsharg: ssh'  -nodelist 'n2.head.cm.mguif.local' -env GAUSS_MDEF=4294967296 -env GAUSS_EXEDIR="/hpc/softwares/Gaussian/g16/bsd:/hpc/softwares/Gaussian/g16""
 Will use up to    1 processors via Linda.
 -----------------------------------
 # td=(50-50,nstates=3) ub3lyp/6-31g
 -----------------------------------
 1/38=1,172=1/1;
 2/12=2,17=6,18=5,40=1/2;
 3/5=1,6=6,11=2,25=1,30=1,74=-5,116=2/1,2,3,8;
 4//1;
 5/5=2,38=5/2;
 8/6=1,10=2,108=3/1;
 9/41=3,42=1,48=2,70=2/14;
 6/7=2,8=2,9=2,10=2/1;
 99/5=1,9=1/99;
 ----------
 [No Title]
 ----------
 Symbolic Z-matrix:
 Charge =  0 Multiplicity = 2
 C                    -4.2996    2.203     0.31764 
 C                    -2.80607   1.98382   0.15228 
 C                    -2.00351   3.1309    0.02411 
 C                    -0.61525   3.05967  -0.1018 
 C                     0.23153   4.30899  -0.20817 
 C                    -0.02455   1.78844  -0.10985 
 C                    -0.78606   0.61951   0.00813 
 C                    -0.08384  -0.74926  -0.01611 
 C                     1.42669  -0.72343  -0.13851 
 C                     2.05024  -0.78676  -1.39483 
 C                     3.444    -0.77211  -1.50867 
 C                     4.24132  -0.69388  -0.36098 
 C                     5.7752   -0.67521  -0.4956 
 C                     6.34955   0.60748  -0.03992 
 N                     6.77683   1.63984   0.31054 
 C                     6.40587  -1.80824   0.21126 
 N                     6.88083  -2.72387   0.76542 
 C                     3.63314  -0.63104   0.9011 
 C                    -2.20148   0.70114   0.1413 
 H                    -4.60576   3.12689  -0.18523 
 H                    -4.88367   1.3762   -0.09515 
 H                    -4.5734    2.30854   1.37633 
 H                    -2.48742   4.1048    0.02423 
 H                    -0.36558   5.17018  -0.52566 
 H                     0.68878   4.56507   0.75737 
 H                     1.04906   4.18044  -0.92675 
 H                    -0.34348  -1.30079   0.89729 
 H                    -0.48622  -1.34256  -0.84831 
 H                     1.44087  -0.84901  -2.29131 
 H                     3.90528  -0.8248   -2.49076 
 H                     6.02123  -0.78034  -1.56232 
 C                     2.24147  -0.64662   1.00594 
 H                     4.24258  -0.57503   1.79793 
 C                    -4.07486  -0.72993  -0.80699 
 C                    -3.03213  -0.57929   0.27685 
 C                    -3.6691   -0.76478   1.69394 
 C                    -4.61334  -1.94357   1.6955 
 C                    -5.20799  -2.37505   0.55962 
 H                    -3.8826   -0.37306  -1.81242 
 H                    -4.18892   0.1529    1.99996 
 H                    -4.81588  -2.4595    2.62795 
 H                    -5.89887  -3.21028   0.54642 
 C                    -5.86001  -2.09996  -1.81591 
 H                    -6.6763   -1.37277  -1.92524 
 H                    -5.27768  -2.11022  -2.74293 
 H                    -6.29404  -3.09213  -1.66965 
 N                    -4.98851  -1.77351  -0.68587 
 H                    -2.8615   -0.91298   2.42394 
 H                    -2.34865  -1.43676   0.17955 
 H                     1.05204   1.71393  -0.21481 
 H                     1.7787   -0.59886   1.98688 
 
 Stoichiometry    C24H24N3(2)
 Framework group  C1[X(C24H24N3)]
 Deg. of freedom   147
 Full point group                 C1      NOp   1
 Largest Abelian subgroup         C1      NOp   1
 Largest concise Abelian subgroup C1      NOp   1
                         Standard orientation:                         
 ---------------------------------------------------------------------
 Center     Atomic      Atomic             Coordinates (Angstroms)
 Number     Number       Type             X           Y           Z
 ---------------------------------------------------------------------
      1          6           0        4.299602    2.202999   -0.317635
      2          6           0        2.806074    1.983820   -0.152283
      3          6           0        2.003513    3.130898   -0.024106
      4          6           0        0.615251    3.059670    0.101801
      5          6           0       -0.231533    4.308993    0.208174
      6          6           0        0.024550    1.788439    0.109848
      7          6           0        0.786058    0.619509   -0.008133
      8          6           0        0.083843   -0.749256    0.016114
      9          6           0       -1.426692   -0.723429    0.138509
     10          6           0       -2.050236   -0.786760    1.394827
     11          6           0       -3.444003   -0.772106    1.508672
     12          6           0       -4.241321   -0.693883    0.360976
     13          6           0       -5.775202   -0.675209    0.495599
     14          6           0       -6.349546    0.607476    0.039923
     15          7           0       -6.776834    1.639835   -0.310543
     16          6           0       -6.405870   -1.808239   -0.211259
     17          7           0       -6.880832   -2.723865   -0.765422
     18          6           0       -3.633141   -0.631042   -0.901095
     19          6           0        2.201484    0.701144   -0.141298
     20          1           0        4.605764    3.126889    0.185229
     21          1           0        4.883665    1.376199    0.095151
     22          1           0        4.573400    2.308544   -1.376327
     23          1           0        2.487418    4.104795   -0.024229
     24          1           0        0.365584    5.170176    0.525661
     25          1           0       -0.688775    4.565065   -0.757374
     26          1           0       -1.049056    4.180443    0.926747
     27          1           0        0.343478   -1.300786   -0.897287
     28          1           0        0.486224   -1.342560    0.848306
     29          1           0       -1.440867   -0.849005    2.291307
     30          1           0       -3.905280   -0.824797    2.490759
     31          1           0       -6.021231   -0.780335    1.562315
     32          6           0       -2.241469   -0.646620   -1.005944
     33          1           0       -4.242577   -0.575025   -1.797934
     34          6           0        4.074862   -0.729931    0.806990
     35          6           0        3.032127   -0.579289   -0.276854
     36          6           0        3.669095   -0.764781   -1.693939
     37          6           0        4.613343   -1.943566   -1.695504
     38          6           0        5.207989   -2.375052   -0.559622
     39          1           0        3.882595   -0.373059    1.812416
     40          1           0        4.188924    0.152899   -1.999956
     41          1           0        4.815877   -2.459499   -2.627953
     42          1           0        5.898872   -3.210277   -0.546423
     43          6           0        5.860005   -2.099962    1.815911
     44          1           0        6.676296   -1.372770    1.925237
     45          1           0        5.277680   -2.110224    2.742934
     46          1           0        6.294038   -3.092132    1.669648
     47          7           0        4.988505   -1.773514    0.685865
     48          1           0        2.861497   -0.912979   -2.423944
     49          1           0        2.348649   -1.436762   -0.179545
     50          1           0       -1.052036    1.713925    0.214814
     51          1           0       -1.778701   -0.598857   -1.986884
 ---------------------------------------------------------------------
 Rotational constants (GHZ):           0.3388936           0.0811735           0.0705845
 Standard basis: 6-31G (6D, 7F)
 There are   291 symmetry adapted cartesian basis functions of A   symmetry.
 There are   291 symmetry adapted basis functions of A   symmetry.
   291 basis functions,   690 primitive gaussians,   291 cartesian basis functions
    95 alpha electrons       94 beta electrons
       nuclear repulsion energy      2189.5516249298 Hartrees.
 NAtoms=   51 NActive=   51 NUniq=   51 SFac= 1.00D+00 NAtFMM=   60 NAOKFM=F Big=F
 Integral buffers will be    131072 words long.
 Raffenetti 2 integral format.
 Two-electron integral symmetry is turned on.
 One-electron integrals computed using PRISM.
 NBasis=   291 RedAO= T EigKep=  4.38D-04  NBF=   291
 NBsUse=   291 1.00D-06 EigRej= -1.00D+00 NBFU=   291
 ExpMin= 1.61D-01 ExpMax= 4.17D+03 ExpMxC= 6.27D+02 IAcc=3 IRadAn=         5 AccDes= 0.00D+00
 Harris functional with IExCor=  402 and IRadAn=       5 diagonalized for initial guess.
 HarFok:  IExCor=  402 AccDes= 0.00D+00 IRadAn=         5 IDoV= 1 UseB2=F ITyADJ=14
 ICtDFT=  3500011 ScaDFX=  1.000000  1.000000  1.000000  1.000000
 FoFCou: FMM=F IPFlag=           0 FMFlag=      100000 FMFlg1=           0
         NFxFlg=           0 DoJE=T BraDBF=F KetDBF=T FulRan=T
         wScrn=  0.000000 ICntrl=       500 IOpCl=  0 I1Cent=   200000004 NGrid=           0
         NMat0=    1 NMatS0=      1 NMatT0=    0 NMatD0=    1 NMtDS0=    0 NMtDT0=    0
 Petite list used in FoFCou.
 Initial guess <Sx>= 0.0000 <Sy>= 0.0000 <Sz>= 0.5000 <S**2>= 0.7500 S= 0.5000
 Requested convergence on RMS density matrix=1.00D-08 within 128 cycles.
 Requested convergence on MAX density matrix=1.00D-06.
 Requested convergence on             energy=1.00D-06.
 No special actions if energy rises.
 Integral accuracy reduced to 1.0D-05 until final iterations.
 Initial convergence to 1.0D-05 achieved.  Increase integral accuracy.
 SCF Done:  E(UB3LYP) =  -1092.87629622     A.U. after   20 cycles
            NFock= 20  Conv=0.78D-08     -V/T= 2.0058
 <Sx>= 0.0000 <Sy>= 0.0000 <Sz>= 0.5000 <S**2>= 0.7590 S= 0.5045
 <L.S>=  0.00000000000    
 Annihilation of the first spin contaminant:
 S**2 before annihilation     0.7590,   after     0.7500
 DoSCS=F DFT=T ScalE2(SS,OS)=  1.000000  1.000000
 ExpMin= 1.61D-01 ExpMax= 4.17D+03 ExpMxC= 6.27D+02 IAcc=3 IRadAn=         5 AccDes= 0.00D+00
 HarFok:  IExCor=  205 AccDes= 0.00D+00 IRadAn=         5 IDoV=-2 UseB2=F ITyADJ=14
 ICtDFT= 12500011 ScaDFX=  1.000000  1.000000  1.000000  1.000000
 GSVD:  LWork=        -945 too small for GESVD, short by        4050 words or        4050 for optimal perf.
 Range of M.O.s used for correlation:    28   291
 NBasis=   291 NAE=    95 NBE=    94 NFC=    27 NFV=     0
 NROrb=    264 NOA=    68 NOB=    67 NVA=   196 NVB=   197

 **** Warning!!: The largest alpha MO coefficient is  0.12671363D+02


 **** Warning!!: The smallest alpha delta epsilon is  0.99715903D-01


 **** Warning!!: The largest beta MO coefficient is  0.13244778D+02

 Ignoring spin specification with unrestricted ground state.
 Keep R1, R2, and R3 ints in memory in canonical form, NReq=2795180927.
 Orbital symmetries:
 Alpha Orbitals:
       Occupied  (A) (A) (A) (A) (A) (A) (A) (A) (A) (A) (A) (A)
                 (A) (A) (A) (A) (A) (A) (A) (A) (A) (A) (A) (A)
                 (A) (A) (A) (A) (A) (A) (A) (A) (A) (A) (A) (A)
                 (A) (A) (A) (A) (A) (A) (A) (A) (A) (A) (A) (A)
                 (A) (A) (A) (A) (A) (A) (A) (A) (A) (A) (A) (A)
                 (A) (A) (A) (A) (A) (A) (A) (A) (A) (A) (A) (A)
                 (A) (A) (A) (A) (A) (A) (A) (A) (A) (A) (A) (A)
                 (A) (A) (A) (A) (A) (A) (A) (A) (A) (A) (A)
       Virtual   (A) (A) (A) (A) (A) (A) (A) (A) (A) (A) (A) (A)
                 (A) (A) (A) (A) (A) (A) (A) (A) (A) (A) (A) (A)
                 (A) (A) (A) (A) (A) (A) (A) (A) (A) (A) (A) (A)
                 (A) (A) (A) (A) (A) (A) (A) (A) (A) (A) (A) (A)
                 (A) (A) (A) (A) (A) (A) (A) (A) (A) (A) (A) (A)
                 (A) (A) (A) (A) (A) (A) (A) (A) (A) (A) (A) (A)
                 (A) (A) (A) (A) (A) (A) (A) (A) (A) (A) (A) (A)
                 (A) (A) (A) (A) (A) (A) (A) (A) (A) (A) (A) (A)
                 (A) (A) (A) (A) (A) (A) (A) (A) (A) (A) (A) (A)
                 (A) (A) (A) (A) (A) (A) (A) (A) (A) (A) (A) (A)
                 (A) (A) (A) (A) (A) (A) (A) (A) (A) (A) (A) (A)
                 (A) (A) (A) (A) (A) (A) (A) (A) (A) (A) (A) (A)
                 (A) (A) (A) (A) (A) (A) (A) (A) (A) (A) (A) (A)
                 (A) (A) (A) (A) (A) (A) (A) (A) (A) (A) (A) (A)
                 (A) (A) (A) (A) (A) (A) (A) (A) (A) (A) (A) (A)
                 (A) (A) (A) (A) (A) (A) (A) (A) (A) (A) (A) (A)
                 (A) (A) (A) (A)
 Beta  Orbitals:
       Occupied  (A) (A) (A) (A) (A) (A) (A) (A) (A) (A) (A) (A)
                 (A) (A) (A) (A) (A) (A) (A) (A) (A) (A) (A) (A)
                 (A) (A) (A) (A) (A) (A) (A) (A) (A) (A) (A) (A)
                 (A) (A) (A) (A) (A) (A) (A) (A) (A) (A) (A) (A)
                 (A) (A) (A) (A) (A) (A) (A) (A) (A) (A) (A) (A)
                 (A) (A) (A) (A) (A) (A) (A) (A) (A) (A) (A) (A)
                 (A) (A) (A) (A) (A) (A) (A) (A) (A) (A) (A) (A)
                 (A) (A) (A) (A) (A) (A) (A) (A) (A) (A)
       Virtual   (A) (A) (A) (A) (A) (A) (A) (A) (A) (A) (A) (A)
                 (A) (A) (A) (A) (A) (A) (A) (A) (A) (A) (A) (A)
                 (A) (A) (A) (A) (A) (A) (A) (A) (A) (A) (A) (A)
                 (A) (A) (A) (A) (A) (A) (A) (A) (A) (A) (A) (A)
                 (A) (A) (A) (A) (A) (A) (A) (A) (A) (A) (A) (A)
                 (A) (A) (A) (A) (A) (A) (A) (A) (A) (A) (A) (A)
                 (A) (A) (A) (A) (A) (A) (A) (A) (A) (A) (A) (A)
                 (A) (A) (A) (A) (A) (A) (A) (A) (A) (A) (A) (A)
                 (A) (A) (A) (A) (A) (A) (A) (A) (A) (A) (A) (A)
                 (A) (A) (A) (A) (A) (A) (A) (A) (A) (A) (A) (A)
                 (A) (A) (A) (A) (A) (A) (A) (A) (A) (A) (A) (A)
                 (A) (A) (A) (A) (A) (A) (A) (A) (A) (A) (A) (A)
                 (A) (A) (A) (A) (A) (A) (A) (A) (A) (A) (A) (A)
                 (A) (A) (A) (A) (A) (A) (A) (A) (A) (A) (A) (A)
                 (A) (A) (A) (A) (A) (A) (A) (A) (A) (A) (A) (A)
                 (A) (A) (A) (A) (A) (A) (A) (A) (A) (A) (A) (A)
                 (A) (A) (A) (A) (A)
    12 initial guesses have been made.
 Convergence on wavefunction:    0.001000000000000
 Iteration     1 Dimension    12 NMult     0 NNew     12
 CISAX will form    12 AO SS matrices at one time.
 New state      3 was old state      5
 Iteration     2 Dimension    18 NMult    12 NNew      6
 Iteration     3 Dimension    24 NMult    18 NNew      6
 Iteration     4 Dimension    30 NMult    24 NNew      6
 Iteration     5 Dimension    34 NMult    30 NNew      4
 Iteration     6 Dimension    38 NMult    34 NNew      4
 Iteration     7 Dimension    42 NMult    38 NNew      4
 Iteration     8 Dimension    44 NMult    42 NNew      2
 Iteration     9 Dimension    46 NMult    44 NNew      2
 ***********************************************************************
 Excited states from <AA,BB:AA,BB> singles matrix:
 ***********************************************************************
 
 ExtSpn:  IState=     1 X2= 1.000 Y2= 0.000 X2-Y2-1= 2.22D-16
          S2Grnd=  0.759 Ra=  0.036 Rb=  0.000 T=  0.000 S2Ext=  0.036 S2=  0.795
 ExtSpn:  IState=     2 X2= 1.000 Y2= 0.000 X2-Y2-1= 0.00D+00
          S2Grnd=  0.759 Ra=  0.035 Rb=  0.000 T=  0.000 S2Ext=  0.035 S2=  0.794
 ExtSpn:  IState=     3 X2= 1.000 Y2= 0.000 X2-Y2-1=-5.55D-16
          S2Grnd=  0.759 Ra=  0.030 Rb=  0.002 T=  0.003 S2Ext=  0.035 S2=  0.794
 Ground to excited state transition densities written to RWF  633
 Ground to excited state transition electric dipole moments (Au):
       state          X           Y           Z        Dip. S.      Osc.
         1         0.2283     -0.0125     -0.0049      0.0523      0.0030
         2        -0.0791      0.0145     -0.0268      0.0072      0.0004
         3        -0.0790      0.0365     -0.0727      0.0129      0.0010
 Ground to excited state transition velocity dipole moments (Au):
       state          X           Y           Z        Dip. S.      Osc.
         1        -0.0175      0.0006     -0.0005      0.0003      0.0024
         2         0.0076      0.0010      0.0023      0.0001      0.0005
         3         0.0114      0.0020      0.0074      0.0002      0.0011
 Ground to excited state transition magnetic dipole moments (Au):
       state          X           Y           Z
         1        -0.0147      0.0177     -0.0213
         2         0.0049      0.0108      0.0522
         3         0.0050     -0.0675      0.1229
 Ground to excited state transition velocity quadrupole moments (Au):
       state          XX          YY          ZZ          XY          XZ          YZ
         1        -0.0302     -0.0093     -0.0061      0.0400     -0.0062     -0.0001
         2         0.0459     -0.0076      0.0008      0.0010      0.0151     -0.0020
         3         0.1361     -0.0221      0.0060      0.0206      0.0789     -0.0140
 <0|del|b> * <b|rxdel|0> + <0|del|b> * <b|delr+rdel|0>
 Rotatory Strengths (R) in cgs (10**-40 erg-esu-cm/Gauss)
       state          XX          YY          ZZ    R(velocity)    E-M Angle
         1         0.0223      1.1865      1.0875      0.7654       59.69
         2         0.4525      0.5392      0.3105      0.4341       67.20
         3         2.4622      2.0907      0.7606      1.7712       64.34
 1/2[<0|r|b>*<b|rxdel|0> + (<0|rxdel|b>*<b|r|0>)*]
 Rotatory Strengths (R) in cgs (10**-40 erg-esu-cm/Gauss)
       state          XX          YY          ZZ     R(length)
         1         2.3695      0.1565     -0.0731      0.8176
         2         0.2757     -0.1105      0.9900      0.3851
         3         0.2786      1.7439      6.3224      2.7816
  1/2[<0|del|b>*<b|r|0> + (<0|r|b>*<b|del|0>)*] (Au)
       state          X           Y           Z        Dip. S.   Osc.(frdel)
         1        -0.0040     -0.0000      0.0000      0.0040      0.0027
         2        -0.0006      0.0000     -0.0001      0.0007      0.0004
         3        -0.0009      0.0001     -0.0005      0.0014      0.0009

 Excitation energies and oscillator strengths:
 
 Excited State   1:  2.044-A      2.3161 eV  535.31 nm  f=0.0030  <S**2>=0.795
     95A -> 96A        0.99888
 This state for optimization and/or second-order correction.
 Total Energy, E(TD-HF/TD-DFT) =  -1092.79118100    
 Copying the excited state density for this state as the 1-particle RhoCI density.
 
 Excited State   2:  2.044-A      2.4656 eV  502.86 nm  f=0.0004  <S**2>=0.794
     95A -> 97A        0.99007
     95A ->100A        0.13408
 
 Excited State   3:  2.043-A      3.0253 eV  409.82 nm  f=0.0010  <S**2>=0.794
     95A -> 97A       -0.13573
     95A -> 98A       -0.14870
     95A ->100A        0.96734
 SavETr:  write IOETrn=   770 NScale= 10 NData=  16 NLR=1 NState=    3 LETran=      64.

 **********************************************************************

            Population analysis using the SCF Density.

 **********************************************************************

 Orbital symmetries:
 Alpha Orbitals:
       Occupied  (A) (A) (A) (A) (A) (A) (A) (A) (A) (A) (A) (A)
                 (A) (A) (A) (A) (A) (A) (A) (A) (A) (A) (A) (A)
                 (A) (A) (A) (A) (A) (A) (A) (A) (A) (A) (A) (A)
                 (A) (A) (A) (A) (A) (A) (A) (A) (A) (A) (A) (A)
                 (A) (A) (A) (A) (A) (A) (A) (A) (A) (A) (A) (A)
                 (A) (A) (A) (A) (A) (A) (A) (A) (A) (A) (A) (A)
                 (A) (A) (A) (A) (A) (A) (A) (A) (A) (A) (A) (A)
                 (A) (A) (A) (A) (A) (A) (A) (A) (A) (A) (A)
       Virtual   (A) (A) (A) (A) (A) (A) (A) (A) (A) (A) (A) (A)
                 (A) (A) (A) (A) (A) (A) (A) (A) (A) (A) (A) (A)
                 (A) (A) (A) (A) (A) (A) (A) (A) (A) (A) (A) (A)
                 (A) (A) (A) (A) (A) (A) (A) (A) (A) (A) (A) (A)
                 (A) (A) (A) (A) (A) (A) (A) (A) (A) (A) (A) (A)
                 (A) (A) (A) (A) (A) (A) (A) (A) (A) (A) (A) (A)
                 (A) (A) (A) (A) (A) (A) (A) (A) (A) (A) (A) (A)
                 (A) (A) (A) (A) (A) (A) (A) (A) (A) (A) (A) (A)
                 (A) (A) (A) (A) (A) (A) (A) (A) (A) (A) (A) (A)
                 (A) (A) (A) (A) (A) (A) (A) (A) (A) (A) (A) (A)
                 (A) (A) (A) (A) (A) (A) (A) (A) (A) (A) (A) (A)
                 (A) (A) (A) (A) (A) (A) (A) (A) (A) (A) (A) (A)
                 (A) (A) (A) (A) (A) (A) (A) (A) (A) (A) (A) (A)
                 (A) (A) (A) (A) (A) (A) (A) (A) (A) (A) (A) (A)
                 (A) (A) (A) (A) (A) (A) (A) (A) (A) (A) (A) (A)
                 (A) (A) (A) (A) (A) (A) (A) (A) (A) (A) (A) (A)
                 (A) (A) (A) (A)
 Beta  Orbitals:
       Occupied  (A) (A) (A) (A) (A) (A) (A) (A) (A) (A) (A) (A)
                 (A) (A) (A) (A) (A) (A) (A) (A) (A) (A) (A) (A)
                 (A) (A) (A) (A) (A) (A) (A) (A) (A) (A) (A) (A)
                 (A) (A) (A) (A) (A) (A) (A) (A) (A) (A) (A) (A)
                 (A) (A) (A) (A) (A) (A) (A) (A) (A) (A) (A) (A)
                 (A) (A) (A) (A) (A) (A) (A) (A) (A) (A) (A) (A)
                 (A) (A) (A) (A) (A) (A) (A) (A) (A) (A) (A) (A)
                 (A) (A) (A) (A) (A) (A) (A) (A) (A) (A)
       Virtual   (A) (A) (A) (A) (A) (A) (A) (A) (A) (A) (A) (A)
                 (A) (A) (A) (A) (A) (A) (A) (A) (A) (A) (A) (A)
                 (A) (A) (A) (A) (A) (A) (A) (A) (A) (A) (A) (A)
                 (A) (A) (A) (A) (A) (A) (A) (A) (A) (A) (A) (A)
                 (A) (A) (A) (A) (A) (A) (A) (A) (A) (A) (A) (A)
                 (A) (A) (A) (A) (A) (A) (A) (A) (A) (A) (A) (A)
                 (A) (A) (A) (A) (A) (A) (A) (A) (A) (A) (A) (A)
                 (A) (A) (A) (A) (A) (A) (A) (A) (A) (A) (A) (A)
                 (A) (A) (A) (A) (A) (A) (A) (A) (A) (A) (A) (A)
                 (A) (A) (A) (A) (A) (A) (A) (A) (A) (A) (A) (A)
                 (A) (A) (A) (A) (A) (A) (A) (A) (A) (A) (A) (A)
                 (A) (A) (A) (A) (A) (A) (A) (A) (A) (A) (A) (A)
                 (A) (A) (A) (A) (A) (A) (A) (A) (A) (A) (A) (A)
                 (A) (A) (A) (A) (A) (A) (A) (A) (A) (A) (A) (A)
                 (A) (A) (A) (A) (A) (A) (A) (A) (A) (A) (A) (A)
                 (A) (A) (A) (A) (A) (A) (A) (A) (A) (A) (A) (A)
                 (A) (A) (A) (A) (A)
 The electronic state is 2-A.
 Alpha  occ. eigenvalues --  -14.37235 -14.37042 -14.37018 -10.29996 -10.25662
 Alpha  occ. eigenvalues --  -10.25645 -10.23427 -10.22394 -10.21626 -10.21536
 Alpha  occ. eigenvalues --  -10.21225 -10.20920 -10.20718 -10.20631 -10.19912
 Alpha  occ. eigenvalues --  -10.19868 -10.19604 -10.19299 -10.19021 -10.18829
 Alpha  occ. eigenvalues --  -10.18823 -10.17956 -10.17412 -10.17283 -10.17236
 Alpha  occ. eigenvalues --  -10.16791 -10.16668  -0.96422  -0.95374  -0.94281
 Alpha  occ. eigenvalues --   -0.89387  -0.86419  -0.84570  -0.81070  -0.79524
 Alpha  occ. eigenvalues --   -0.77828  -0.77194  -0.75788  -0.74691  -0.71821
 Alpha  occ. eigenvalues --   -0.69872  -0.68235  -0.67882  -0.63894  -0.62799
 Alpha  occ. eigenvalues --   -0.62523  -0.61462  -0.59174  -0.57263  -0.56242
 Alpha  occ. eigenvalues --   -0.54644  -0.53059  -0.51839  -0.51556  -0.49051
 Alpha  occ. eigenvalues --   -0.48209  -0.47597  -0.47085  -0.46473  -0.46002
 Alpha  occ. eigenvalues --   -0.44718  -0.44474  -0.43588  -0.42844  -0.42650
 Alpha  occ. eigenvalues --   -0.41940  -0.41204  -0.40986  -0.40787  -0.40635
 Alpha  occ. eigenvalues --   -0.39750  -0.39019  -0.38882  -0.38440  -0.38041
 Alpha  occ. eigenvalues --   -0.37271  -0.36776  -0.36530  -0.36404  -0.36198
 Alpha  occ. eigenvalues --   -0.35532  -0.35252  -0.34989  -0.34847  -0.34144
 Alpha  occ. eigenvalues --   -0.34007  -0.32724  -0.32399  -0.31471  -0.27465
 Alpha  occ. eigenvalues --   -0.26464  -0.23371  -0.23152  -0.22235  -0.13231
 Alpha virt. eigenvalues --   -0.03259  -0.02636  -0.00955  -0.00568   0.00541
 Alpha virt. eigenvalues --    0.00851   0.02928   0.04470   0.04735   0.07926
 Alpha virt. eigenvalues --    0.08177   0.08964   0.10230   0.10749   0.10956
 Alpha virt. eigenvalues --    0.11403   0.12026   0.12595   0.13012   0.13597
 Alpha virt. eigenvalues --    0.14022   0.14861   0.15000   0.15398   0.15845
 Alpha virt. eigenvalues --    0.16100   0.16704   0.16966   0.17266   0.17491
 Alpha virt. eigenvalues --    0.17911   0.18772   0.19239   0.19610   0.19874
 Alpha virt. eigenvalues --    0.19985   0.21509   0.21772   0.22624   0.24011
 Alpha virt. eigenvalues --    0.24321   0.24982   0.25761   0.26118   0.27332
 Alpha virt. eigenvalues --    0.28785   0.29376   0.30681   0.31152   0.32107
 Alpha virt. eigenvalues --    0.32221   0.32625   0.34269   0.35489   0.36939
 Alpha virt. eigenvalues --    0.37654   0.39261   0.39894   0.40377   0.41550
 Alpha virt. eigenvalues --    0.46738   0.48961   0.49145   0.49795   0.51310
 Alpha virt. eigenvalues --    0.51608   0.52452   0.52948   0.53149   0.53234
 Alpha virt. eigenvalues --    0.54442   0.54699   0.55225   0.55333   0.56442
 Alpha virt. eigenvalues --    0.56927   0.57114   0.57366   0.58009   0.58565
 Alpha virt. eigenvalues --    0.59141   0.59815   0.59961   0.60124   0.60720
 Alpha virt. eigenvalues --    0.61447   0.62062   0.62263   0.62673   0.63266
 Alpha virt. eigenvalues --    0.64277   0.64509   0.65138   0.65365   0.65803
 Alpha virt. eigenvalues --    0.66292   0.67249   0.68086   0.68197   0.69686
 Alpha virt. eigenvalues --    0.70679   0.70845   0.71038   0.71940   0.72443
 Alpha virt. eigenvalues --    0.72968   0.73040   0.74437   0.75530   0.76092
 Alpha virt. eigenvalues --    0.76836   0.77489   0.78273   0.79144   0.79289
 Alpha virt. eigenvalues --    0.80396   0.80490   0.80877   0.81972   0.83016
 Alpha virt. eigenvalues --    0.83271   0.83988   0.84661   0.84789   0.85651
 Alpha virt. eigenvalues --    0.85979   0.86608   0.87259   0.87705   0.88437
 Alpha virt. eigenvalues --    0.89351   0.90175   0.91035   0.91428   0.91782
 Alpha virt. eigenvalues --    0.91937   0.92773   0.93051   0.93705   0.94329
 Alpha virt. eigenvalues --    0.94704   0.95026   0.95737   0.96266   0.97033
 Alpha virt. eigenvalues --    0.97185   0.97448   0.98060   0.98467   0.99855
 Alpha virt. eigenvalues --    1.00370   1.03147   1.04211   1.04890   1.05696
 Alpha virt. eigenvalues --    1.07227   1.07700   1.09464   1.12325   1.14184
 Alpha virt. eigenvalues --    1.15405   1.15763   1.16424   1.17073   1.18543
 Alpha virt. eigenvalues --    1.19613   1.21600   1.23601   1.24021   1.24766
 Alpha virt. eigenvalues --    1.25114   1.26548   1.27484   1.31166   1.32397
 Alpha virt. eigenvalues --    1.34187   1.35646   1.38441   1.38805   1.42827
 Alpha virt. eigenvalues --    1.45014   1.46499   1.47006   1.48475   1.51837
 Alpha virt. eigenvalues --    1.54541   1.57250   1.58148   1.68322   1.69629
 Alpha virt. eigenvalues --    1.70528   1.77088   1.90338   1.92465   1.93389
 Alpha virt. eigenvalues --    2.01243
  Beta  occ. eigenvalues --  -14.37042 -14.37018 -14.36938 -10.29996 -10.25662
  Beta  occ. eigenvalues --  -10.25645 -10.23427 -10.22416 -10.21625 -10.21536
  Beta  occ. eigenvalues --  -10.21225 -10.21023 -10.20718 -10.20631 -10.19864
  Beta  occ. eigenvalues --  -10.19609 -10.19362 -10.19026 -10.18832 -10.18823
  Beta  occ. eigenvalues --  -10.18806 -10.17939 -10.17411 -10.17281 -10.17232
  Beta  occ. eigenvalues --  -10.16620 -10.16502  -0.95602  -0.95374  -0.94281
  Beta  occ. eigenvalues --   -0.89386  -0.86394  -0.84564  -0.80813  -0.79501
  Beta  occ. eigenvalues --   -0.77644  -0.77194  -0.75633  -0.74212  -0.71460
  Beta  occ. eigenvalues --   -0.69852  -0.68086  -0.67841  -0.63894  -0.62377
  Beta  occ. eigenvalues --   -0.61902  -0.61448  -0.59174  -0.57247  -0.56166
  Beta  occ. eigenvalues --   -0.54642  -0.53054  -0.51573  -0.50927  -0.48850
  Beta  occ. eigenvalues --   -0.48081  -0.47580  -0.46868  -0.46305  -0.45421
  Beta  occ. eigenvalues --   -0.44716  -0.44458  -0.43381  -0.42792  -0.42437
  Beta  occ. eigenvalues --   -0.41819  -0.41143  -0.40968  -0.40651  -0.40533
  Beta  occ. eigenvalues --   -0.39638  -0.38954  -0.38807  -0.38435  -0.38040
  Beta  occ. eigenvalues --   -0.37270  -0.36696  -0.36419  -0.36230  -0.35958
  Beta  occ. eigenvalues --   -0.35368  -0.35110  -0.34985  -0.34428  -0.34120
  Beta  occ. eigenvalues --   -0.33099  -0.32560  -0.32204  -0.31323  -0.27464
  Beta  occ. eigenvalues --   -0.26452  -0.23326  -0.22669  -0.20416
  Beta virt. eigenvalues --   -0.03315  -0.02759  -0.02608  -0.00955  -0.00567
  Beta virt. eigenvalues --    0.00606   0.00852   0.02929   0.04733   0.05817
  Beta virt. eigenvalues --    0.07940   0.08271   0.09005   0.10305   0.10779
  Beta virt. eigenvalues --    0.10989   0.11475   0.12188   0.12659   0.13068
  Beta virt. eigenvalues --    0.13798   0.14066   0.14981   0.15100   0.15564
  Beta virt. eigenvalues --    0.15865   0.16534   0.16826   0.17062   0.17423
  Beta virt. eigenvalues --    0.17814   0.18120   0.18866   0.19516   0.19671
  Beta virt. eigenvalues --    0.19987   0.20068   0.21597   0.22114   0.22746
  Beta virt. eigenvalues --    0.24036   0.24516   0.25144   0.25808   0.26291
  Beta virt. eigenvalues --    0.27442   0.29115   0.29593   0.30788   0.31454
  Beta virt. eigenvalues --    0.32226   0.32609   0.32631   0.34472   0.35559
  Beta virt. eigenvalues --    0.37108   0.37841   0.39278   0.39974   0.40431
  Beta virt. eigenvalues --    0.41885   0.46818   0.48967   0.49152   0.49841
  Beta virt. eigenvalues --    0.51313   0.51865   0.52539   0.53018   0.53228
  Beta virt. eigenvalues --    0.53278   0.54486   0.54817   0.55383   0.55543
  Beta virt. eigenvalues --    0.56686   0.57074   0.57212   0.57641   0.58041
  Beta virt. eigenvalues --    0.58689   0.59312   0.59891   0.60228   0.60369
  Beta virt. eigenvalues --    0.60735   0.61656   0.62180   0.62464   0.62720
  Beta virt. eigenvalues --    0.63305   0.64429   0.64619   0.65251   0.65588
  Beta virt. eigenvalues --    0.65805   0.66420   0.67696   0.68111   0.68396
  Beta virt. eigenvalues --    0.69809   0.70836   0.71144   0.71450   0.71978
  Beta virt. eigenvalues --    0.72744   0.73123   0.73163   0.74639   0.75720
  Beta virt. eigenvalues --    0.76136   0.76931   0.77545   0.78429   0.79147
  Beta virt. eigenvalues --    0.79370   0.80436   0.80606   0.80991   0.82026
  Beta virt. eigenvalues --    0.83145   0.83496   0.84061   0.84716   0.84925
  Beta virt. eigenvalues --    0.85675   0.86164   0.86656   0.87641   0.87911
  Beta virt. eigenvalues --    0.88571   0.89390   0.90288   0.91237   0.91447
  Beta virt. eigenvalues --    0.91850   0.92023   0.92851   0.93208   0.93731
  Beta virt. eigenvalues --    0.94342   0.94990   0.95049   0.95940   0.96355
  Beta virt. eigenvalues --    0.97079   0.97293   0.97635   0.98121   0.98558
  Beta virt. eigenvalues --    0.99882   1.00492   1.03202   1.04264   1.05159
  Beta virt. eigenvalues --    1.05791   1.07709   1.08015   1.09565   1.12579
  Beta virt. eigenvalues --    1.14253   1.15646   1.15827   1.16513   1.17247
  Beta virt. eigenvalues --    1.18597   1.19702   1.21606   1.23615   1.24043
  Beta virt. eigenvalues --    1.24851   1.25127   1.26795   1.27522   1.31389
  Beta virt. eigenvalues --    1.32509   1.34248   1.35927   1.38593   1.38852
  Beta virt. eigenvalues --    1.43088   1.45477   1.46518   1.47071   1.48621
  Beta virt. eigenvalues --    1.51978   1.54751   1.57350   1.58152   1.68462
  Beta virt. eigenvalues --    1.69629   1.70897   1.77134   1.90361   1.92542
  Beta virt. eigenvalues --    1.93428   2.01455
          Condensed to atoms (all electrons):
          Atomic-Atomic Spin Densities.
 Mulliken charges and spin densities:
               1          2
     1  C   -0.486228   0.021190
     2  C    0.074404  -0.004475
     3  C   -0.194987   0.002360
     4  C    0.127573  -0.002510
     5  C   -0.480447   0.000198
     6  C   -0.196875   0.001705
     7  C    0.070373  -0.003458
     8  C   -0.418560   0.002292
     9  C    0.100650   0.000482
    10  C   -0.143660   0.000292
    11  C   -0.142307  -0.000145
    12  C    0.122502   0.000344
    13  C   -0.304394  -0.000020
    14  C    0.159223   0.000010
    15  N   -0.236539   0.000005
    16  C    0.156970   0.000006
    17  N   -0.235812   0.000007
    18  C   -0.127403  -0.000166
    19  C    0.049509   0.008826
    20  H    0.136049  -0.000586
    21  H    0.163974   0.003138
    22  H    0.151544   0.000074
    23  H    0.111570   0.000054
    24  H    0.142305  -0.000017
    25  H    0.156676  -0.000125
    26  H    0.147083  -0.000045
    27  H    0.160526   0.000125
    28  H    0.159128  -0.000468
    29  H    0.139489  -0.000006
    30  H    0.137143   0.000019
    31  H    0.239896   0.000002
    32  C   -0.143944   0.000271
    33  H    0.155792   0.000008
    34  C    0.095607   0.792255
    35  C   -0.246512  -0.061937
    36  C   -0.274337  -0.004903
    37  C   -0.155230   0.228956
    38  C    0.116010  -0.084529
    39  H    0.117433  -0.036718
    40  H    0.150328   0.004347
    41  H    0.111873  -0.011149
    42  H    0.129812   0.002952
    43  C   -0.240190  -0.013545
    44  H    0.159283   0.014923
    45  H    0.153530   0.010957
    46  H    0.152755   0.000054
    47  N   -0.561348   0.081308
    48  H    0.126697   0.009040
    49  H    0.142969   0.038659
    50  H    0.126154  -0.000053
    51  H    0.143948  -0.000002
 Sum of Mulliken charges =  -0.00000   1.00000
 Mulliken charges and spin densities with hydrogens summed into heavy atoms:
               1          2
     1  C   -0.034662   0.023816
     2  C    0.074404  -0.004475
     3  C   -0.083417   0.002414
     4  C    0.127573  -0.002510
     5  C   -0.034383   0.000011
     6  C   -0.070720   0.001652
     7  C    0.070373  -0.003458
     8  C   -0.098907   0.001948
     9  C    0.100650   0.000482
    10  C   -0.004172   0.000286
    11  C   -0.005164  -0.000126
    12  C    0.122502   0.000344
    13  C   -0.064497  -0.000018
    14  C    0.159223   0.000010
    15  N   -0.236539   0.000005
    16  C    0.156970   0.000006
    17  N   -0.235812   0.000007
    18  C    0.028389  -0.000158
    19  C    0.049509   0.008826
    32  C    0.000004   0.000268
    34  C    0.213040   0.755537
    35  C   -0.103544  -0.023278
    36  C    0.002687   0.008484
    37  C   -0.043357   0.217807
    38  C    0.245822  -0.081578
    43  C    0.225379   0.012389
    47  N   -0.561348   0.081308
 Electronic spatial extent (au):  <R**2>=          14674.4271
 Charge=              0.0000 electrons
 Dipole moment (field-independent basis, Debye):
    X=              5.5461    Y=             -1.0185    Z=              3.4646  Tot=              6.6182
 Quadrupole moment (field-independent basis, Debye-Ang):
   XX=           -185.6444   YY=           -167.6610   ZZ=           -150.6494
   XY=             -8.2690   XZ=            -10.4341   YZ=             -5.6647
 Traceless Quadrupole moment (field-independent basis, Debye-Ang):
   XX=            -17.6595   YY=              0.3239   ZZ=             17.3356
   XY=             -8.2690   XZ=            -10.4341   YZ=             -5.6647
 Octapole moment (field-independent basis, Debye-Ang**2):
  XXX=            444.6925  YYY=             41.1884  ZZZ=             11.7965  XYY=            138.6404
  XXY=            -30.1873  XXZ=            157.6644  XZZ=              1.7364  YZZ=            -15.0043
  YYZ=             18.8767  XYZ=              7.9536
 Hexadecapole moment (field-independent basis, Debye-Ang**3):
 XXXX=         -18114.0992 YYYY=          -3501.8903 ZZZZ=           -916.7047 XXXY=           -514.4040
 XXXZ=           -505.3414 YYYX=           -244.2824 YYYZ=            -37.7529 ZZZX=              4.4932
 ZZZY=            -20.9669 XXYY=          -3773.4584 XXZZ=          -2659.4675 YYZZ=           -756.4942
 XXYZ=           -240.5957 YYXZ=            -68.4790 ZZXY=            -54.5077
 N-N= 2.189551624930D+03 E-N=-6.913588149305D+03  KE= 1.086560825282D+03
 Unable to Open any file for archive entry.
 1\1\GINC-N2\SP\UB3LYP TD-FC\6-31G\C24H24N3(2)\HPCMGAC13\13-Jun-2025\0\
 \# td=(50-50,nstates=3) ub3lyp/6-31g\\[No Title]\\0,2\C,0,-4.299602,2.
 202999,0.317635\C,0,-2.806074,1.98382,0.152283\C,0,-2.003513,3.130898,
 0.024106\C,0,-0.615251,3.05967,-0.101801\C,0,0.231533,4.308993,-0.2081
 74\C,0,-0.02455,1.788439,-0.109848\C,0,-0.786058,0.619509,0.008133\C,0
 ,-0.083843,-0.749256,-0.016114\C,0,1.426692,-0.723429,-0.138509\C,0,2.
 050236,-0.78676,-1.394827\C,0,3.444003,-0.772106,-1.508672\C,0,4.24132
 1,-0.693883,-0.360976\C,0,5.775202,-0.675209,-0.495599\C,0,6.349546,0.
 607476,-0.039923\N,0,6.776834,1.639835,0.310543\C,0,6.40587,-1.808239,
 0.211259\N,0,6.880832,-2.723865,0.765422\C,0,3.633141,-0.631042,0.9010
 95\C,0,-2.201484,0.701144,0.141298\H,0,-4.605764,3.126889,-0.185229\H,
 0,-4.883665,1.376199,-0.095151\H,0,-4.5734,2.308544,1.376327\H,0,-2.48
 7418,4.104795,0.024229\H,0,-0.365584,5.170176,-0.525661\H,0,0.688775,4
 .565065,0.757374\H,0,1.049056,4.180443,-0.926747\H,0,-0.343478,-1.3007
 86,0.897287\H,0,-0.486224,-1.34256,-0.848306\H,0,1.440867,-0.849005,-2
 .291307\H,0,3.90528,-0.824797,-2.490759\H,0,6.021231,-0.780335,-1.5623
 15\C,0,2.241469,-0.64662,1.005944\H,0,4.242577,-0.575025,1.797934\C,0,
 -4.074862,-0.729931,-0.80699\C,0,-3.032127,-0.579289,0.276854\C,0,-3.6
 69095,-0.764781,1.693939\C,0,-4.613343,-1.943566,1.695504\C,0,-5.20798
 9,-2.375052,0.559622\H,0,-3.882595,-0.373059,-1.812416\H,0,-4.188924,0
 .152899,1.999956\H,0,-4.815877,-2.459499,2.627953\H,0,-5.898872,-3.210
 277,0.546423\C,0,-5.860005,-2.099962,-1.815911\H,0,-6.676296,-1.37277,
 -1.925237\H,0,-5.27768,-2.110224,-2.742934\H,0,-6.294038,-3.092132,-1.
 669648\N,0,-4.988505,-1.773514,-0.685865\H,0,-2.861497,-0.912979,2.423
 944\H,0,-2.348649,-1.436762,0.179545\H,0,1.052036,1.713925,-0.214814\H
 ,0,1.778701,-0.598857,1.986884\\Version=ES64L-G16RevC.02\State=2-A\HF=
 -1092.8762962\S2=0.759026\S2-1=0.\S2A=0.750037\RMSD=7.808e-09\PG=C01 [
 X(C24H24N3)]\\@
 The archive entry for this job was punched.


      TO SUSPECT YOUR OWN MORTALITY IS TO KNOW THE BEGINNING OF TERROR.
      TO LEARN IRREFUTABLY THAT YOU ARE MORTAL IS TO KNOW THE END
      OF TERROR.

                                                  -- JESSICA
                                                     CHILDREN OF DUNE
                                                     BY FRANK HERBERT
 Job cpu time:       0 days  0 hours 35 minutes 50.3 seconds.
 Elapsed time:       0 days  0 hours  2 minutes 17.5 seconds.
 File lengths (MBytes):  RWF=    654 Int=      0 D2E=      0 Chk=     20 Scr=      2
 Normal termination of Gaussian 16 at Fri Jun 13 11:23:58 2025.
