 Entering Gaussian System, Link 0=g16
 Input=M1299.gjf
 Output=M1299.log
 Initial command:
 /hpc/softwares/Gaussian/g16/l1.exe "/hpc/home/hpcmgac13/pbs.11114.admin1.x8z/Gau-183869.inp" -scrdir="/hpc/home/hpcmgac13/pbs.11114.admin1.x8z/"
 Default linda workers: n2
 Default is to use  16 SMP processors on each worker.
 Entering Link 1 = /hpc/softwares/Gaussian/g16/l1.exe PID=    183870.
  
 Copyright (c) 1988-2021, Gaussian, Inc.  All Rights Reserved.
  
 This is part of the Gaussian(R) 16 program.  It is based on
 the Gaussian(R) 09 system (copyright 2009, Gaussian, Inc.),
 the Gaussian(R) 03 system (copyright 2003, Gaussian, Inc.),
 the Gaussian(R) 98 system (copyright 1998, Gaussian, Inc.),
 the Gaussian(R) 94 system (copyright 1995, Gaussian, Inc.),
 the Gaussian 92(TM) system (copyright 1992, Gaussian, Inc.),
 the Gaussian 90(TM) system (copyright 1990, Gaussian, Inc.),
 the Gaussian 88(TM) system (copyright 1988, Gaussian, Inc.),
 the Gaussian 86(TM) system (copyright 1986, Carnegie Mellon
 University), and the Gaussian 82(TM) system (copyright 1983,
 Carnegie Mellon University). Gaussian is a federally registered
 trademark of Gaussian, Inc.
  
 This software contains proprietary and confidential information,
 including trade secrets, belonging to Gaussian, Inc.
  
 This software is provided under written license and may be
 used, copied, transmitted, or stored only in accord with that
 written license.
  
 The following legend is applicable only to US Government
 contracts under FAR:
  
                    RESTRICTED RIGHTS LEGEND
  
 Use, reproduction and disclosure by the US Government is
 subject to restrictions as set forth in subparagraphs (a)
 and (c) of the Commercial Computer Software - Restricted
 Rights clause in FAR 52.227-19.
  
 Gaussian, Inc.
 340 Quinnipiac St., Bldg. 40, Wallingford CT 06492
  
  
 ---------------------------------------------------------------
 Warning -- This program may not be used in any manner that
 competes with the business of Gaussian, Inc. or will provide
 assistance to any competitor of Gaussian, Inc.  The licensee
 of this program is prohibited from giving any competitor of
 Gaussian, Inc. access to this program.  By using this program,
 the user acknowledges that Gaussian, Inc. is engaged in the
 business of creating and licensing software in the field of
 computational chemistry and represents and warrants to the
 licensee that it is not a competitor of Gaussian, Inc. and that
 it will not use this program in any manner prohibited above.
 ---------------------------------------------------------------
  

 Cite this work as:
 Gaussian 16, Revision C.02,
 M. J. Frisch, G. W. Trucks, H. B. Schlegel, G. E. Scuseria, 
 M. A. Robb, J. R. Cheeseman, G. Scalmani, V. Barone, 
 G. A. Petersson, H. Nakatsuji, X. Li, M. Caricato, A. V. Marenich, 
 J. Bloino, B. G. Janesko, R. Gomperts, B. Mennucci, H. P. Hratchian, 
 J. V. Ortiz, A. F. Izmaylov, J. L. Sonnenberg, D. Williams-Young, 
 F. Ding, F. Lipparini, F. Egidi, J. Goings, B. Peng, A. Petrone, 
 T. Henderson, D. Ranasinghe, V. G. Zakrzewski, J. Gao, N. Rega, 
 G. Zheng, W. Liang, M. Hada, M. Ehara, K. Toyota, R. Fukuda, 
 J. Hasegawa, M. Ishida, T. Nakajima, Y. Honda, O. Kitao, H. Nakai, 
 T. Vreven, K. Throssell, J. A. Montgomery, Jr., J. E. Peralta, 
 F. Ogliaro, M. J. Bearpark, J. J. Heyd, E. N. Brothers, K. N. Kudin, 
 V. N. Staroverov, T. A. Keith, R. Kobayashi, J. Normand, 
 K. Raghavachari, A. P. Rendell, J. C. Burant, S. S. Iyengar, 
 J. Tomasi, M. Cossi, J. M. Millam, M. Klene, C. Adamo, R. Cammi, 
 J. W. Ochterski, R. L. Martin, K. Morokuma, O. Farkas, 
 J. B. Foresman, and D. J. Fox, Gaussian, Inc., Wallingford CT, 2019.
 
 ******************************************
 Gaussian 16:  ES64L-G16RevC.02  7-Dec-2021
                13-Jun-2025 
 ******************************************
 SetLPE:    new flags="-opt 'Tsnet.Node.lindarsharg: ssh'  -nodelist 'n2.head.cm.mguif.local' -env GAUSS_MDEF=4294967296 -env GAUSS_EXEDIR="/hpc/softwares/Gaussian/g16/bsd:/hpc/softwares/Gaussian/g16""
 Will use up to    1 processors via Linda.
 -----------------------------------
 # td=(50-50,nstates=3) ub3lyp/6-31g
 -----------------------------------
 1/38=1,172=1/1;
 2/12=2,17=6,18=5,40=1/2;
 3/5=1,6=6,11=2,25=1,30=1,74=-5,116=2/1,2,3,8;
 4//1;
 5/5=2,38=5/2;
 8/6=1,10=2,108=3/1;
 9/41=3,42=1,48=2,70=2/14;
 6/7=2,8=2,9=2,10=2/1;
 99/5=1,9=1/99;
 ----------
 [No Title]
 ----------
 Symbolic Z-matrix:
 Charge =  0 Multiplicity = 2
 C                    -2.79922   2.69369  -0.98729 
 C                    -1.36899   2.43118  -0.56441 
 C                    -0.38885   3.40385  -0.79098 
 C                     0.94951   3.20839  -0.41512 
 C                     1.99074   4.27512  -0.67616 
 C                     1.29224   1.99846   0.19455 
 C                     0.33855   0.99228   0.42672 
 C                     0.78082  -0.29619   1.12768 
 C                    -1.00626   1.20508   0.05255 
 H                    -2.89802   3.68925  -1.43075 
 H                    -3.13986   1.9561   -1.72399 
 H                    -3.48835   2.62516  -0.13779 
 H                    -0.67701   4.33854  -1.26631 
 H                     1.62617   5.26979  -0.39332 
 H                     2.90966   4.08047  -0.1139 
 H                     2.25862   4.32065  -1.74058 
 H                     1.0749   -0.05669   2.15575 
 H                    -0.06353  -0.98502   1.18204 
 H                     2.31751   1.83736   0.51314 
 C                     1.9458   -0.99949   0.459 
 C                     1.78519  -1.91147  -0.58953 
 C                     3.27378  -0.79334   0.84575 
 C                     2.8342   -2.57351  -1.21785 
 C                     4.36901  -1.41989   0.26103 
 C                     4.14014  -2.32127  -0.78365 
 H                     2.6227   -3.26676  -2.02195 
 H                     5.36589  -1.20134   0.62193 
 H                     4.97492  -2.82437  -1.25772 
 F                     0.48822  -2.1866   -1.02936 
 F                     3.51724   0.11577   1.8798 
 C                    -2.06927   0.18374   0.33358 
 C                    -2.27604  -0.8495   -0.54906 
 C                    -2.88253   0.29229   1.50713 
 H                    -1.67326  -0.9881   -1.4352 
 C                    -3.88782  -0.69015   1.714 
 H                    -2.71998   1.09315   2.21679 
 C                    -4.07762  -1.71624   0.82574 
 H                    -4.52853  -0.63797   2.58852 
 H                    -4.83465  -2.48031   0.94416 
 N                    -3.28257  -1.81278  -0.33535 
 C                    -3.31297  -3.01998  -1.15385 
 H                    -2.60139  -3.78079  -0.79837 
 H                    -4.31894  -3.44912  -1.13905 
 H                    -3.0604   -2.77129  -2.18885 
 
                          Input orientation:                          
 ---------------------------------------------------------------------
 Center     Atomic      Atomic             Coordinates (Angstroms)
 Number     Number       Type             X           Y           Z
 ---------------------------------------------------------------------
      1          6           0       -2.799224    2.693685   -0.987292
      2          6           0       -1.368985    2.431175   -0.564409
      3          6           0       -0.388851    3.403847   -0.790978
      4          6           0        0.949508    3.208385   -0.415119
      5          6           0        1.990737    4.275115   -0.676155
      6          6           0        1.292240    1.998463    0.194548
      7          6           0        0.338553    0.992277    0.426723
      8          6           0        0.780816   -0.296189    1.127678
      9          6           0       -1.006262    1.205084    0.052548
     10          1           0       -2.898016    3.689249   -1.430754
     11          1           0       -3.139863    1.956100   -1.723990
     12          1           0       -3.488345    2.625155   -0.137785
     13          1           0       -0.677005    4.338540   -1.266309
     14          1           0        1.626174    5.269789   -0.393322
     15          1           0        2.909656    4.080472   -0.113901
     16          1           0        2.258623    4.320652   -1.740583
     17          1           0        1.074897   -0.056685    2.155751
     18          1           0       -0.063528   -0.985023    1.182044
     19          1           0        2.317510    1.837360    0.513143
     20          6           0        1.945803   -0.999491    0.458996
     21          6           0        1.785191   -1.911469   -0.589534
     22          6           0        3.273784   -0.793341    0.845746
     23          6           0        2.834203   -2.573509   -1.217846
     24          6           0        4.369005   -1.419887    0.261025
     25          6           0        4.140137   -2.321270   -0.783646
     26          1           0        2.622703   -3.266757   -2.021951
     27          1           0        5.365887   -1.201335    0.621931
     28          1           0        4.974920   -2.824365   -1.257724
     29          9           0        0.488222   -2.186596   -1.029363
     30          9           0        3.517243    0.115767    1.879803
     31          6           0       -2.069272    0.183738    0.333577
     32          6           0       -2.276043   -0.849498   -0.549055
     33          6           0       -2.882529    0.292288    1.507133
     34          1           0       -1.673263   -0.988101   -1.435202
     35          6           0       -3.887820   -0.690148    1.713999
     36          1           0       -2.719978    1.093154    2.216785
     37          6           0       -4.077620   -1.716239    0.825739
     38          1           0       -4.528533   -0.637970    2.588521
     39          1           0       -4.834649   -2.480308    0.944162
     40          7           0       -3.282573   -1.812782   -0.335352
     41          6           0       -3.312973   -3.019980   -1.153852
     42          1           0       -2.601391   -3.780786   -0.798373
     43          1           0       -4.318944   -3.449120   -1.139053
     44          1           0       -3.060402   -2.771291   -2.188850
 ---------------------------------------------------------------------
                    Distance matrix (angstroms):
                    1          2          3          4          5
     1  C    0.000000
     2  C    1.514373   0.000000
     3  C    2.520470   1.399317   0.000000
     4  C    3.826916   2.449847   1.403809   0.000000
     5  C    5.053855   3.834101   2.536677   1.513344   0.000000
     6  C    4.315108   2.800959   2.402589   1.397523   2.535580
     7  C    3.839254   2.443042   2.797782   2.448081   3.837066
     8  C    5.121438   3.863071   4.328929   3.832847   5.061081
     9  C    2.551845   1.419684   2.434603   2.838479   4.351793
    10  H    1.094334   2.161305   2.605125   4.008265   4.981221
    11  H    1.096718   2.169409   3.245697   4.472618   5.727028
    12  H    1.096014   2.170558   3.261884   4.484597   5.747395
    13  H    2.699484   2.146984   1.087485   2.155764   2.732975
    14  H    5.154926   4.130130   2.774923   2.169732   1.096484
    15  H    5.939470   4.607592   3.434589   2.166437   1.094727
    16  H    5.366217   4.255943   2.958276   2.169741   1.098564
    17  H    5.696672   4.422813   4.775045   4.157617   5.255754
    18  H    5.071779   4.052743   4.822948   4.600200   5.944910
    19  H    5.400515   3.886384   3.388068   2.147745   2.732007
    20  C    6.184382   4.879001   5.138329   4.411678   5.395559
    21  C    6.510186   5.367310   5.746270   5.190539   6.190604
    22  C    7.238840   5.825920   5.806044   4.796441   5.445332
    23  C    7.715697   6.568153   6.804343   6.134064   6.921598
    24  C    8.358426   6.959637   6.856553   5.794051   6.242396
    25  C    8.564227   7.279026   7.299914   6.394764   6.938571
    26  H    8.123711   7.108054   7.421705   6.878151   7.687027
    27  H    9.188570   7.743451   7.504733   6.326571   6.562634
    28  H    9.537260   8.267195   8.232771   7.301233   7.723094
    29  F    5.884404   4.998921   5.663845   5.449395   6.643494
    30  F    7.400247   5.933845   5.762127   4.628630   5.115009
    31  C    2.928713   2.519475   3.802307   4.338441   5.851717
    32  C    3.608312   3.403793   4.659503   5.185415   6.669575
    33  C    3.463496   3.340200   4.602341   5.184899   6.661710
    34  H    3.876075   3.541513   4.621033   5.052721   6.457747
    35  C    4.464565   4.612844   5.939570   6.567453   8.057550
    36  H    3.582470   3.369054   4.451976   4.986607   6.378465
    37  C    4.936477   5.144925   6.514297   7.145885   8.658924
    38  H    5.184291   5.416951   6.700318   7.336568   8.791894
    39  H    5.885888   6.197522   7.576220   8.225895   9.738946
    40  N    4.578962   4.661058   5.982845   6.567267   8.061416
    41  C    5.739133   5.817355   7.067370   7.583337   9.031940
    42  H    6.480247   6.337351   7.517602   7.848839   9.273625
    43  H    6.329821   6.603813   7.907588   8.520742   9.984496
    44  H    5.601600   5.706606   6.871940   7.414987   8.800800
                    6          7          8          9         10
     6  C    0.000000
     7  C    1.405644   0.000000
     8  C    2.529370   1.532018   0.000000
     9  C    2.435719   1.412027   2.569703   0.000000
    10  H    4.801938   4.604265   5.996924   3.456876   0.000000
    11  H    4.829712   4.201654   5.345703   2.876172   1.774340
    12  H    4.832927   4.198822   5.325541   2.865932   1.775543
    13  H    3.389394   3.885253   5.416376   3.415603   2.319808
    14  H    3.340461   4.541756   5.831653   4.863162   4.903332
    15  H    2.654418   4.054601   5.022812   4.861067   5.967932
    16  H    3.173514   4.411572   5.632589   4.856085   5.204382
    17  H    2.849068   2.152222   1.095801   3.216636   6.532923
    18  H    3.422637   2.154506   1.091038   2.638385   6.058866
    19  H    1.085650   2.153579   2.700206   3.414584   5.865999
    20  C    3.079741   2.559577   1.516234   3.706756   7.001287
    21  C    4.018128   3.399600   2.562560   4.232893   7.349022
    22  C    3.484931   3.461155   2.557643   4.789745   7.960351
    23  C    5.027468   4.652710   3.860579   5.535417   8.492691
    24  C    4.599567   4.700057   3.858612   5.985602   9.042952
    25  C    5.265688   5.186196   4.363387   6.294427   9.277968
    26  H    5.865624   5.417815   4.704996   6.121298   8.900218
    27  H    5.197688   5.488545   4.700845   6.835154   9.819543
    28  H    6.239463   6.236988   5.447231   7.329926  10.219600
    29  F    4.433861   3.499689   2.883067   3.861024   6.793620
    30  F    3.366789   3.603301   2.867653   4.998757   8.055129
    31  C    3.822606   2.541659   2.997320   1.500705   4.011021
    32  C    4.625632   3.343709   3.530152   2.489092   4.665240
    33  C    4.697085   3.468810   3.729663   2.543500   4.491187
    34  H    4.513298   3.381725   3.615190   2.732828   4.835043
    35  C    6.030786   4.727564   4.721773   3.828276   5.481633
    36  H    4.583331   3.545294   3.920713   2.762838   4.480619
    37  C    6.559940   5.195946   5.070711   4.308734   5.975159
    38  H    6.823729   5.569524   5.517251   4.715337   6.126825
    39  H    7.626276   6.252088   6.028059   5.388287   6.888701
    40  N    5.977901   4.643454   4.577296   3.799944   5.623178
    41  C    6.943410   5.650669   5.420657   4.962608   6.727750
    42  H    7.038890   5.738141   5.224118   5.303527   7.502621
    43  H    7.933476   6.623439   6.409883   5.835700   7.284260
    44  H    6.883068   5.706011   5.646277   5.005488   6.506893
                   11         12         13         14         15
    11  H    0.000000
    12  H    1.756451   0.000000
    13  H    3.457045   3.480357   0.000000
    14  H    5.955361   5.763479   2.633242   0.000000
    15  H    6.610751   6.561474   3.776080   1.771970   0.000000
    16  H    5.893643   6.202525   2.973746   1.765210   1.768509
    17  H    6.071894   5.768514   5.839320   5.930683   5.062976
    18  H    5.153550   5.148272   5.891613   6.667799   6.014860
    19  H    5.899304   5.895106   4.288295   3.616793   2.403200
    20  C    6.274149   6.559281   6.192768   6.335020   5.202235
    21  C    6.364058   6.971027   6.751522   7.185698   6.115064
    22  C    7.436252   7.640670   6.812174   6.404019   4.980719
    23  C    7.514187   8.256346   7.752893   7.978502   6.745358
    24  C    8.468806   8.846432   7.807333   7.259687   5.703001
    25  C    8.495795   9.114713   8.233522   8.006031   6.553239
    26  H    7.782942   8.695379   8.324639   8.747464   7.596366
    27  H    9.371261   9.675568   8.412622   7.542655   5.871286
    28  H    9.429738  10.128099   9.124228   8.802080   7.297289
    29  F    5.550445   6.305628   6.632594   7.569489   6.780675
    30  F    7.790456   7.710120   6.732128   5.941985   4.479163
    31  C    2.919078   2.862947   4.664807   6.328714   6.338335
    32  C    3.161967   3.702976   5.476049   7.259285   7.168364
    33  C    3.643439   2.918054   5.378519   6.979660   7.108270
    34  H    3.301914   4.246579   5.421638   7.150733   6.959843
    35  C    4.402481   3.818366   6.669278   8.388431   8.503277
    36  H    4.055945   2.912287   5.180561   6.568560   6.785937
    37  C    4.567995   4.485903   7.252668   9.100767   9.127256
    38  H    5.220666   4.377524   7.379677   9.037335   9.213763
    39  H    5.447298   5.389703   8.286668  10.178168  10.204783
    40  N    4.019099   4.447096   6.744956   8.617538   8.551209
    41  C    5.011626   5.738527   7.817211   9.679558   9.498370
    42  H    5.835973   6.500703   8.357373   9.997464   9.624943
    43  H    5.563163   6.212025   8.598114  10.579221  10.488010
    44  H    4.750856   5.788923   7.555221   9.478760   9.321677
                   16         17         18         19         20
    16  H    0.000000
    17  H    5.978604   0.000000
    18  H    6.487243   1.762364   0.000000
    19  H    3.354026   2.798152   3.752681   0.000000
    20  C    5.765408   2.127519   2.135514   2.861612   0.000000
    21  C    6.355186   3.388411   2.722968   3.943727   1.398898
    22  C    5.820015   2.663434   3.359686   2.818807   1.398430
    23  C    6.937867   4.561877   4.084067   4.766452   2.465479
    24  C    6.435366   4.037258   4.548047   3.857701   2.467353
    25  C    6.969286   4.812909   4.829109   4.722058   2.847167
    26  H    7.601348   5.491217   4.763164   5.707176   3.428380
    27  H    6.762315   4.698449   5.462515   4.305590   3.429907
    28  H    7.659157   5.875546   5.892504   5.650617   3.931010
    29  F    6.781182   3.876295   2.576534   4.681649   2.397702
    30  F    5.689673   2.463928   3.810581   2.504197   2.394142
    31  C    6.336156   3.641967   2.471620   4.691542   4.187671
    32  C    6.979498   4.378736   2.812524   5.426620   4.343115
    33  C    7.294300   4.025383   3.111908   5.515040   5.106865
    34  H    6.613308   4.616802   3.072659   5.263606   4.084820
    35  C    8.649914   5.022448   3.872355   6.807090   5.975105
    36  H    7.131898   3.965719   3.527922   5.369593   5.407263
    37  C    9.120199   5.574180   4.095676   7.322805   6.076994
    38  H    9.454870   5.650098   4.694134   7.569858   6.825145
    39  H   10.187022   6.501125   5.005603   8.365489   6.957207
    40  N    8.384422   5.317614   3.653755   6.738279   5.350546
    41  C    9.234274   6.244037   4.489583   7.620693   5.859896
    42  H    9.494251   6.009232   4.263695   7.581506   5.476637
    43  H   10.197822   7.173414   5.437631   8.644024   6.913863
    44  H    8.876296   6.583718   4.851282   7.580394   5.934008
                   21         22         23         24         25
    21  C    0.000000
    22  C    2.350776   0.000000
    23  C    1.390503   2.760551   0.000000
    24  C    2.764272   1.390672   2.423535   0.000000
    25  C    2.398205   2.395841   1.399149   1.398646   0.000000
    26  H    2.142440   3.842575   1.082548   3.416501   2.174845
    27  H    3.846209   2.143233   3.417172   1.082493   2.175400
    28  H    3.384410   3.382825   2.155734   2.155525   1.083844
    29  F    1.396880   3.635457   2.385132   4.160940   3.662649
    30  F    3.634187   1.398222   4.158627   2.388341   3.663483
    31  C    4.483181   5.455754   5.835528   6.635382   6.788226
    32  C    4.197981   5.722692   5.434529   6.718500   6.586996
    33  C    5.571370   6.286192   6.951211   7.554408   7.835572
    34  H    3.678134   5.451048   4.783096   6.290678   5.999790
    35  C    6.243472   7.214782   7.571549   8.415391   8.564279
    36  H    6.099158   6.431469   7.489328   7.771361   8.229341
    37  C    6.034374   7.409135   7.258405   8.470667   8.395696
    38  H    7.182266   7.996096   8.511441   9.230104   9.452558
    39  H    6.818950   8.282646   7.968328   9.289694   9.140974
    40  N    5.075094   6.739441   6.226753   7.684834   7.453600
    41  C    5.247716   7.234755   6.163701   7.973391   7.494938
    42  H    4.772846   6.793058   5.583830   7.435226   6.897725
    43  H    6.318766   8.285053   7.206970   9.030972   8.541335
    44  H    5.174638   7.296778   5.977318   7.938783   7.350162
                   26         27         28         29         30
    26  H    0.000000
    27  H    4.333721   0.000000
    28  H    2.512504   2.513998   0.000000
    29  F    2.589978   5.243007   4.537550   0.000000
    30  F    5.240740   2.595088   4.540184   4.789477   0.000000
    31  C    6.282440   7.568564   7.823143   3.743910   5.796946
    32  C    5.657762   7.739127   7.548429   3.108004   6.355568
    33  C    7.445053   8.429167   8.893676   4.892917   6.413043
    34  H    4.898150   7.336682   6.899399   2.504618   6.256927
    35  C    7.936192   9.331935   9.588231   5.377280   7.450634
    36  H    8.094439   8.555083   9.307557   5.620212   6.322323
    37  C    7.443640   9.459730   9.355065   4.950712   7.883479
    38  H    8.905456  10.103683  10.482821   6.376140   8.112023
    39  H    8.064021  10.285453  10.059539   5.684542   8.795972
    40  N    6.311176   8.722736   8.370201   3.852309   7.407004
    41  C    6.003894   9.043422   8.290852   3.893470   8.104802
    42  H    5.390040   8.494018   7.650244   3.484323   7.732621
    43  H    6.999945  10.097007   9.315595   4.971403   9.122924
    44  H    5.707103   9.020399   8.089265   3.778758   8.255571
                   31         32         33         34         35
    31  C    0.000000
    32  C    1.374544   0.000000
    33  C    1.431923   2.428870   0.000000
    34  H    2.158381   1.080653   3.429148   0.000000
    35  C    2.444659   2.782918   1.420769   3.861412   0.000000
    36  H    2.190189   3.408936   1.082319   4.331771   2.190163
    37  C    2.808131   2.426310   2.434486   3.379789   1.370362
    38  H    3.436268   3.868183   2.178098   4.946262   1.085368
    39  H    3.888093   3.381672   3.437295   4.228761   2.166520
    40  N    2.430156   1.409499   2.825970   2.116518   2.413808
    41  C    3.744736   2.480322   4.270508   2.626088   3.739403
    42  H    4.157152   2.959807   4.688745   3.010990   4.185565
    43  H    4.519659   3.358508   4.802470   3.625458   3.992205
    44  H    4.009635   2.645267   4.803899   2.381576   4.499779
                   36         37         38         39         40
    36  H    0.000000
    37  C    3.416268   0.000000
    38  H    2.530978   2.115038   0.000000
    39  H    4.342929   1.082090   2.488339   0.000000
    40  N    3.908245   1.410515   3.388456   2.119360   0.000000
    41  C    5.350767   2.490624   4.599664   2.647340   1.458833
    42  H    5.732411   3.013195   5.006218   3.116908   2.133410
    43  H    5.869463   2.630878   4.673468   2.354641   2.097046
    44  H    5.870217   3.351957   5.434127   3.612255   2.098465
                   41         42         43         44
    41  C    0.000000
    42  H    1.100700   0.000000
    43  H    1.093781   1.782149   0.000000
    44  H    1.094011   1.778538   1.773543   0.000000
 Stoichiometry    C21H20F2N(2)
 Framework group  C1[X(C21H20F2N)]
 Deg. of freedom   126
 Full point group                 C1      NOp   1
 Largest Abelian subgroup         C1      NOp   1
 Largest concise Abelian subgroup C1      NOp   1
                         Standard orientation:                         
 ---------------------------------------------------------------------
 Center     Atomic      Atomic             Coordinates (Angstroms)
 Number     Number       Type             X           Y           Z
 ---------------------------------------------------------------------
      1          6           0       -2.799224    2.693685   -0.987292
      2          6           0       -1.368985    2.431175   -0.564409
      3          6           0       -0.388851    3.403847   -0.790978
      4          6           0        0.949508    3.208385   -0.415119
      5          6           0        1.990737    4.275115   -0.676155
      6          6           0        1.292240    1.998463    0.194548
      7          6           0        0.338553    0.992277    0.426723
      8          6           0        0.780816   -0.296189    1.127678
      9          6           0       -1.006262    1.205084    0.052548
     10          1           0       -2.898016    3.689249   -1.430754
     11          1           0       -3.139863    1.956100   -1.723990
     12          1           0       -3.488345    2.625155   -0.137785
     13          1           0       -0.677005    4.338540   -1.266309
     14          1           0        1.626174    5.269789   -0.393322
     15          1           0        2.909656    4.080472   -0.113901
     16          1           0        2.258623    4.320652   -1.740583
     17          1           0        1.074897   -0.056685    2.155751
     18          1           0       -0.063528   -0.985023    1.182044
     19          1           0        2.317510    1.837360    0.513143
     20          6           0        1.945803   -0.999491    0.458996
     21          6           0        1.785191   -1.911469   -0.589534
     22          6           0        3.273784   -0.793341    0.845746
     23          6           0        2.834203   -2.573509   -1.217846
     24          6           0        4.369005   -1.419887    0.261025
     25          6           0        4.140137   -2.321270   -0.783646
     26          1           0        2.622703   -3.266757   -2.021951
     27          1           0        5.365887   -1.201335    0.621931
     28          1           0        4.974920   -2.824365   -1.257724
     29          9           0        0.488222   -2.186596   -1.029363
     30          9           0        3.517243    0.115767    1.879803
     31          6           0       -2.069272    0.183738    0.333577
     32          6           0       -2.276043   -0.849498   -0.549055
     33          6           0       -2.882529    0.292288    1.507133
     34          1           0       -1.673263   -0.988101   -1.435202
     35          6           0       -3.887820   -0.690148    1.713999
     36          1           0       -2.719978    1.093154    2.216785
     37          6           0       -4.077620   -1.716239    0.825739
     38          1           0       -4.528533   -0.637970    2.588521
     39          1           0       -4.834649   -2.480308    0.944162
     40          7           0       -3.282573   -1.812782   -0.335352
     41          6           0       -3.312973   -3.019980   -1.153852
     42          1           0       -2.601391   -3.780786   -0.798373
     43          1           0       -4.318944   -3.449120   -1.139053
     44          1           0       -3.060402   -2.771291   -2.188850
 ---------------------------------------------------------------------
 Rotational constants (GHZ):           0.2912543           0.1946969           0.1364724
 Standard basis: 6-31G (6D, 7F)
 There are   256 symmetry adapted cartesian basis functions of A   symmetry.
 There are   256 symmetry adapted basis functions of A   symmetry.
   256 basis functions,   608 primitive gaussians,   256 cartesian basis functions
    86 alpha electrons       85 beta electrons
       nuclear repulsion energy      2006.9655941419 Hartrees.
 NAtoms=   44 NActive=   44 NUniq=   44 SFac= 1.00D+00 NAtFMM=   60 NAOKFM=F Big=F
 Integral buffers will be    131072 words long.
 Raffenetti 2 integral format.
 Two-electron integral symmetry is turned on.
 One-electron integrals computed using PRISM.
 NBasis=   256 RedAO= T EigKep=  4.25D-04  NBF=   256
 NBsUse=   256 1.00D-06 EigRej= -1.00D+00 NBFU=   256
 ExpMin= 1.61D-01 ExpMax= 7.00D+03 ExpMxC= 1.05D+03 IAcc=3 IRadAn=         5 AccDes= 0.00D+00
 Harris functional with IExCor=  402 and IRadAn=       5 diagonalized for initial guess.
 HarFok:  IExCor=  402 AccDes= 0.00D+00 IRadAn=         5 IDoV= 1 UseB2=F ITyADJ=14
 ICtDFT=  3500011 ScaDFX=  1.000000  1.000000  1.000000  1.000000
 FoFCou: FMM=F IPFlag=           0 FMFlag=      100000 FMFlg1=           0
         NFxFlg=           0 DoJE=T BraDBF=F KetDBF=T FulRan=T
         wScrn=  0.000000 ICntrl=       500 IOpCl=  0 I1Cent=   200000004 NGrid=           0
         NMat0=    1 NMatS0=      1 NMatT0=    0 NMatD0=    1 NMtDS0=    0 NMtDT0=    0
 Petite list used in FoFCou.
 Initial guess <Sx>= 0.0000 <Sy>= 0.0000 <Sz>= 0.5000 <S**2>= 0.7500 S= 0.5000
 Requested convergence on RMS density matrix=1.00D-08 within 128 cycles.
 Requested convergence on MAX density matrix=1.00D-06.
 Requested convergence on             energy=1.00D-06.
 No special actions if energy rises.
 Integral accuracy reduced to 1.0D-05 until final iterations.
 Initial convergence to 1.0D-05 achieved.  Increase integral accuracy.
 SCF Done:  E(UB3LYP) =  -1066.42618219     A.U. after   21 cycles
            NFock= 21  Conv=0.65D-08     -V/T= 2.0055
 <Sx>= 0.0000 <Sy>= 0.0000 <Sz>= 0.5000 <S**2>= 0.7699 S= 0.5099
 <L.S>=  0.00000000000    
 Annihilation of the first spin contaminant:
 S**2 before annihilation     0.7699,   after     0.7503
 DoSCS=F DFT=T ScalE2(SS,OS)=  1.000000  1.000000
 ExpMin= 1.61D-01 ExpMax= 7.00D+03 ExpMxC= 1.05D+03 IAcc=3 IRadAn=         5 AccDes= 0.00D+00
 HarFok:  IExCor=  205 AccDes= 0.00D+00 IRadAn=         5 IDoV=-2 UseB2=F ITyADJ=14
 ICtDFT= 12500011 ScaDFX=  1.000000  1.000000  1.000000  1.000000
 GSVD:  LWork=        -768 too small for GESVD, short by        3240 words or        3240 for optimal perf.
 Range of M.O.s used for correlation:    25   256
 NBasis=   256 NAE=    86 NBE=    85 NFC=    24 NFV=     0
 NROrb=    232 NOA=    62 NOB=    61 NVA=   170 NVB=   171

 **** Warning!!: The largest alpha MO coefficient is  0.14321856D+02


 **** Warning!!: The smallest alpha delta epsilon is  0.82186899D-01


 **** Warning!!: The largest beta MO coefficient is  0.14316935D+02

 Ignoring spin specification with unrestricted ground state.
 Keep R1, R2, and R3 ints in memory in canonical form, NReq=1694581232.
 Orbital symmetries:
 Alpha Orbitals:
       Occupied  (A) (A) (A) (A) (A) (A) (A) (A) (A) (A) (A) (A)
                 (A) (A) (A) (A) (A) (A) (A) (A) (A) (A) (A) (A)
                 (A) (A) (A) (A) (A) (A) (A) (A) (A) (A) (A) (A)
                 (A) (A) (A) (A) (A) (A) (A) (A) (A) (A) (A) (A)
                 (A) (A) (A) (A) (A) (A) (A) (A) (A) (A) (A) (A)
                 (A) (A) (A) (A) (A) (A) (A) (A) (A) (A) (A) (A)
                 (A) (A) (A) (A) (A) (A) (A) (A) (A) (A) (A) (A)
                 (A) (A)
       Virtual   (A) (A) (A) (A) (A) (A) (A) (A) (A) (A) (A) (A)
                 (A) (A) (A) (A) (A) (A) (A) (A) (A) (A) (A) (A)
                 (A) (A) (A) (A) (A) (A) (A) (A) (A) (A) (A) (A)
                 (A) (A) (A) (A) (A) (A) (A) (A) (A) (A) (A) (A)
                 (A) (A) (A) (A) (A) (A) (A) (A) (A) (A) (A) (A)
                 (A) (A) (A) (A) (A) (A) (A) (A) (A) (A) (A) (A)
                 (A) (A) (A) (A) (A) (A) (A) (A) (A) (A) (A) (A)
                 (A) (A) (A) (A) (A) (A) (A) (A) (A) (A) (A) (A)
                 (A) (A) (A) (A) (A) (A) (A) (A) (A) (A) (A) (A)
                 (A) (A) (A) (A) (A) (A) (A) (A) (A) (A) (A) (A)
                 (A) (A) (A) (A) (A) (A) (A) (A) (A) (A) (A) (A)
                 (A) (A) (A) (A) (A) (A) (A) (A) (A) (A) (A) (A)
                 (A) (A) (A) (A) (A) (A) (A) (A) (A) (A) (A) (A)
                 (A) (A) (A) (A) (A) (A) (A) (A) (A) (A) (A) (A)
                 (A) (A)
 Beta  Orbitals:
       Occupied  (A) (A) (A) (A) (A) (A) (A) (A) (A) (A) (A) (A)
                 (A) (A) (A) (A) (A) (A) (A) (A) (A) (A) (A) (A)
                 (A) (A) (A) (A) (A) (A) (A) (A) (A) (A) (A) (A)
                 (A) (A) (A) (A) (A) (A) (A) (A) (A) (A) (A) (A)
                 (A) (A) (A) (A) (A) (A) (A) (A) (A) (A) (A) (A)
                 (A) (A) (A) (A) (A) (A) (A) (A) (A) (A) (A) (A)
                 (A) (A) (A) (A) (A) (A) (A) (A) (A) (A) (A) (A)
                 (A)
       Virtual   (A) (A) (A) (A) (A) (A) (A) (A) (A) (A) (A) (A)
                 (A) (A) (A) (A) (A) (A) (A) (A) (A) (A) (A) (A)
                 (A) (A) (A) (A) (A) (A) (A) (A) (A) (A) (A) (A)
                 (A) (A) (A) (A) (A) (A) (A) (A) (A) (A) (A) (A)
                 (A) (A) (A) (A) (A) (A) (A) (A) (A) (A) (A) (A)
                 (A) (A) (A) (A) (A) (A) (A) (A) (A) (A) (A) (A)
                 (A) (A) (A) (A) (A) (A) (A) (A) (A) (A) (A) (A)
                 (A) (A) (A) (A) (A) (A) (A) (A) (A) (A) (A) (A)
                 (A) (A) (A) (A) (A) (A) (A) (A) (A) (A) (A) (A)
                 (A) (A) (A) (A) (A) (A) (A) (A) (A) (A) (A) (A)
                 (A) (A) (A) (A) (A) (A) (A) (A) (A) (A) (A) (A)
                 (A) (A) (A) (A) (A) (A) (A) (A) (A) (A) (A) (A)
                 (A) (A) (A) (A) (A) (A) (A) (A) (A) (A) (A) (A)
                 (A) (A) (A) (A) (A) (A) (A) (A) (A) (A) (A) (A)
                 (A) (A) (A)
    12 initial guesses have been made.
 Convergence on wavefunction:    0.001000000000000
 Iteration     1 Dimension    12 NMult     0 NNew     12
 CISAX will form    12 AO SS matrices at one time.
 New state      2 was old state      3
 New state      3 was old state      2
 Iteration     2 Dimension    18 NMult    12 NNew      6
 New state      1 was old state      2
 New state      2 was old state      1
 Iteration     3 Dimension    24 NMult    18 NNew      6
 Iteration     4 Dimension    30 NMult    24 NNew      6
 Iteration     5 Dimension    34 NMult    30 NNew      4
 Iteration     6 Dimension    38 NMult    34 NNew      4
 Iteration     7 Dimension    40 NMult    38 NNew      2
 ***********************************************************************
 Excited states from <AA,BB:AA,BB> singles matrix:
 ***********************************************************************
 
 ExtSpn:  IState=     1 X2= 1.009 Y2= 0.009 X2-Y2-1= 0.00D+00
          S2Grnd=  0.770 Ra= -0.003 Rb=  0.004 T= -0.002 S2Ext= -0.001 S2=  0.769
 ExtSpn:  IState=     2 X2= 1.001 Y2= 0.001 X2-Y2-1= 6.66D-16
          S2Grnd=  0.770 Ra=  0.003 Rb=  0.000 T= -0.000 S2Ext=  0.004 S2=  0.774
 ExtSpn:  IState=     3 X2= 1.000 Y2= 0.000 X2-Y2-1= 2.22D-16
          S2Grnd=  0.770 Ra=  0.004 Rb=  0.000 T=  0.000 S2Ext=  0.004 S2=  0.774
 Ground to excited state transition densities written to RWF  633
 Ground to excited state transition electric dipole moments (Au):
       state          X           Y           Z        Dip. S.      Osc.
         1         0.1255      0.0695     -0.1139      0.0336      0.0013
         2         0.2338      0.0495     -0.0356      0.0584      0.0025
         3         0.0583      0.0308     -0.0018      0.0043      0.0002
 Ground to excited state transition velocity dipole moments (Au):
       state          X           Y           Z        Dip. S.      Osc.
         1        -0.0113     -0.0070      0.0061      0.0002      0.0025
         2        -0.0126     -0.0031      0.0032      0.0002      0.0018
         3        -0.0006     -0.0025     -0.0002      0.0000      0.0001
 Ground to excited state transition magnetic dipole moments (Au):
       state          X           Y           Z
         1         0.6783     -0.5711      0.5304
         2         0.1826     -0.1721      0.1540
         3        -0.0389      0.0407     -0.0253
 Ground to excited state transition velocity quadrupole moments (Au):
       state          XX          YY          ZZ          XY          XZ          YZ
         1         0.1531      0.0466     -0.0215      0.0879     -0.0431     -0.0390
         2         0.0401      0.0086     -0.0013      0.0672     -0.0183     -0.0110
         3        -0.0215      0.0083     -0.0028      0.0031     -0.0012      0.0018
 <0|del|b> * <b|rxdel|0> + <0|del|b> * <b|delr+rdel|0>
 Rotatory Strengths (R) in cgs (10**-40 erg-esu-cm/Gauss)
       state          XX          YY          ZZ    R(velocity)    E-M Angle
         1        46.5748    -28.1573    -23.8305     -1.8043       91.65
         2         6.5221    -10.2643    -10.0509     -4.5977      108.73
         3        -0.4825      0.1311     -0.3497     -0.2337       90.00
 1/2[<0|r|b>*<b|rxdel|0> + (<0|rxdel|b>*<b|r|0>)*]
 Rotatory Strengths (R) in cgs (10**-40 erg-esu-cm/Gauss)
       state          XX          YY          ZZ     R(length)
         1       -60.1889     28.0670     42.7358      3.5380
         2       -30.2017      6.0227      3.8750     -6.7680
         3         1.6007     -0.8867     -0.0329      0.2270
  1/2[<0|del|b>*<b|r|0> + (<0|r|b>*<b|del|0>)*] (Au)
       state          X           Y           Z        Dip. S.   Osc.(frdel)
         1        -0.0014     -0.0005     -0.0007      0.0026      0.0017
         2        -0.0030     -0.0002     -0.0001      0.0032      0.0022
         3        -0.0000     -0.0001      0.0000      0.0001      0.0001

 Excitation energies and oscillator strengths:
 
 Excited State   1:  2.019-A      1.5467 eV  801.61 nm  f=0.0013  <S**2>=0.769
     86A -> 87A       -0.33331
     86A -> 89A        0.85961
     86A -> 91A       -0.36595
 This state for optimization and/or second-order correction.
 Total Energy, E(TD-HF/TD-DFT) =  -1066.36934248    
 Copying the excited state density for this state as the 1-particle RhoCI density.
 
 Excited State   2:  2.023-A      1.7708 eV  700.17 nm  f=0.0025  <S**2>=0.774
     86A -> 87A        0.93989
     86A -> 89A        0.30205
     86A -> 91A       -0.13541
 
 Excited State   3:  2.024-A      1.9923 eV  622.33 nm  f=0.0002  <S**2>=0.774
     86A -> 88A        0.99606
 SavETr:  write IOETrn=   770 NScale= 10 NData=  16 NLR=1 NState=    3 LETran=      64.

 **********************************************************************

            Population analysis using the SCF Density.

 **********************************************************************

 Orbital symmetries:
 Alpha Orbitals:
       Occupied  (A) (A) (A) (A) (A) (A) (A) (A) (A) (A) (A) (A)
                 (A) (A) (A) (A) (A) (A) (A) (A) (A) (A) (A) (A)
                 (A) (A) (A) (A) (A) (A) (A) (A) (A) (A) (A) (A)
                 (A) (A) (A) (A) (A) (A) (A) (A) (A) (A) (A) (A)
                 (A) (A) (A) (A) (A) (A) (A) (A) (A) (A) (A) (A)
                 (A) (A) (A) (A) (A) (A) (A) (A) (A) (A) (A) (A)
                 (A) (A) (A) (A) (A) (A) (A) (A) (A) (A) (A) (A)
                 (A) (A)
       Virtual   (A) (A) (A) (A) (A) (A) (A) (A) (A) (A) (A) (A)
                 (A) (A) (A) (A) (A) (A) (A) (A) (A) (A) (A) (A)
                 (A) (A) (A) (A) (A) (A) (A) (A) (A) (A) (A) (A)
                 (A) (A) (A) (A) (A) (A) (A) (A) (A) (A) (A) (A)
                 (A) (A) (A) (A) (A) (A) (A) (A) (A) (A) (A) (A)
                 (A) (A) (A) (A) (A) (A) (A) (A) (A) (A) (A) (A)
                 (A) (A) (A) (A) (A) (A) (A) (A) (A) (A) (A) (A)
                 (A) (A) (A) (A) (A) (A) (A) (A) (A) (A) (A) (A)
                 (A) (A) (A) (A) (A) (A) (A) (A) (A) (A) (A) (A)
                 (A) (A) (A) (A) (A) (A) (A) (A) (A) (A) (A) (A)
                 (A) (A) (A) (A) (A) (A) (A) (A) (A) (A) (A) (A)
                 (A) (A) (A) (A) (A) (A) (A) (A) (A) (A) (A) (A)
                 (A) (A) (A) (A) (A) (A) (A) (A) (A) (A) (A) (A)
                 (A) (A) (A) (A) (A) (A) (A) (A) (A) (A) (A) (A)
                 (A) (A)
 Beta  Orbitals:
       Occupied  (A) (A) (A) (A) (A) (A) (A) (A) (A) (A) (A) (A)
                 (A) (A) (A) (A) (A) (A) (A) (A) (A) (A) (A) (A)
                 (A) (A) (A) (A) (A) (A) (A) (A) (A) (A) (A) (A)
                 (A) (A) (A) (A) (A) (A) (A) (A) (A) (A) (A) (A)
                 (A) (A) (A) (A) (A) (A) (A) (A) (A) (A) (A) (A)
                 (A) (A) (A) (A) (A) (A) (A) (A) (A) (A) (A) (A)
                 (A) (A) (A) (A) (A) (A) (A) (A) (A) (A) (A) (A)
                 (A)
       Virtual   (A) (A) (A) (A) (A) (A) (A) (A) (A) (A) (A) (A)
                 (A) (A) (A) (A) (A) (A) (A) (A) (A) (A) (A) (A)
                 (A) (A) (A) (A) (A) (A) (A) (A) (A) (A) (A) (A)
                 (A) (A) (A) (A) (A) (A) (A) (A) (A) (A) (A) (A)
                 (A) (A) (A) (A) (A) (A) (A) (A) (A) (A) (A) (A)
                 (A) (A) (A) (A) (A) (A) (A) (A) (A) (A) (A) (A)
                 (A) (A) (A) (A) (A) (A) (A) (A) (A) (A) (A) (A)
                 (A) (A) (A) (A) (A) (A) (A) (A) (A) (A) (A) (A)
                 (A) (A) (A) (A) (A) (A) (A) (A) (A) (A) (A) (A)
                 (A) (A) (A) (A) (A) (A) (A) (A) (A) (A) (A) (A)
                 (A) (A) (A) (A) (A) (A) (A) (A) (A) (A) (A) (A)
                 (A) (A) (A) (A) (A) (A) (A) (A) (A) (A) (A) (A)
                 (A) (A) (A) (A) (A) (A) (A) (A) (A) (A) (A) (A)
                 (A) (A) (A) (A) (A) (A) (A) (A) (A) (A) (A) (A)
                 (A) (A) (A)
 The electronic state is 2-A.
 Alpha  occ. eigenvalues --  -24.70243 -24.70212 -14.36636 -10.28300 -10.28239
 Alpha  occ. eigenvalues --  -10.21858 -10.21734 -10.21197 -10.20619 -10.20608
 Alpha  occ. eigenvalues --  -10.20462 -10.20141 -10.18810 -10.18795 -10.18432
 Alpha  occ. eigenvalues --  -10.18348 -10.18169 -10.18124 -10.17437 -10.16974
 Alpha  occ. eigenvalues --  -10.16750 -10.16681 -10.16219 -10.15810  -1.21091
 Alpha  occ. eigenvalues --   -1.21020  -0.95980  -0.88650  -0.85741  -0.80857
 Alpha  occ. eigenvalues --   -0.80278  -0.77641  -0.76460  -0.76022  -0.74798
 Alpha  occ. eigenvalues --   -0.70907  -0.69681  -0.67793  -0.67245  -0.62878
 Alpha  occ. eigenvalues --   -0.62570  -0.61882  -0.61325  -0.56841  -0.55950
 Alpha  occ. eigenvalues --   -0.54613  -0.52269  -0.51801  -0.49874  -0.48848
 Alpha  occ. eigenvalues --   -0.48457  -0.48039  -0.47474  -0.46515  -0.45653
 Alpha  occ. eigenvalues --   -0.45462  -0.44544  -0.44074  -0.42986  -0.42564
 Alpha  occ. eigenvalues --   -0.42276  -0.41190  -0.40980  -0.40743  -0.40360
 Alpha  occ. eigenvalues --   -0.39800  -0.39572  -0.38959  -0.38532  -0.37596
 Alpha  occ. eigenvalues --   -0.36927  -0.36509  -0.36090  -0.35836  -0.35485
 Alpha  occ. eigenvalues --   -0.35192  -0.32842  -0.32229  -0.31719  -0.27257
 Alpha  occ. eigenvalues --   -0.26160  -0.25754  -0.25383  -0.22655  -0.22257
 Alpha  occ. eigenvalues --   -0.10003
 Alpha virt. eigenvalues --   -0.01784  -0.00948   0.00782   0.01357   0.01714
 Alpha virt. eigenvalues --    0.06151   0.09346   0.11290   0.11468   0.12338
 Alpha virt. eigenvalues --    0.12489   0.12620   0.13238   0.13397   0.13802
 Alpha virt. eigenvalues --    0.14337   0.15116   0.15272   0.16136   0.16450
 Alpha virt. eigenvalues --    0.16750   0.17011   0.17600   0.17948   0.18069
 Alpha virt. eigenvalues --    0.18909   0.19424   0.19705   0.20234   0.20994
 Alpha virt. eigenvalues --    0.21559   0.24727   0.24882   0.26377   0.27844
 Alpha virt. eigenvalues --    0.28208   0.28558   0.28979   0.29567   0.29857
 Alpha virt. eigenvalues --    0.33345   0.35725   0.36547   0.37117   0.38224
 Alpha virt. eigenvalues --    0.39465   0.39979   0.40338   0.42582   0.45964
 Alpha virt. eigenvalues --    0.47675   0.48334   0.49516   0.50000   0.50730
 Alpha virt. eigenvalues --    0.51484   0.53063   0.54157   0.54743   0.55437
 Alpha virt. eigenvalues --    0.56065   0.56926   0.57397   0.58192   0.58451
 Alpha virt. eigenvalues --    0.58657   0.59000   0.59486   0.59907   0.60410
 Alpha virt. eigenvalues --    0.60615   0.61265   0.61806   0.62679   0.62909
 Alpha virt. eigenvalues --    0.63690   0.63862   0.64782   0.65214   0.65485
 Alpha virt. eigenvalues --    0.65904   0.66012   0.66473   0.67298   0.68172
 Alpha virt. eigenvalues --    0.69471   0.71339   0.73972   0.74160   0.74291
 Alpha virt. eigenvalues --    0.75544   0.77085   0.77731   0.78171   0.79003
 Alpha virt. eigenvalues --    0.79640   0.80128   0.81722   0.82147   0.83529
 Alpha virt. eigenvalues --    0.83904   0.84709   0.85511   0.86609   0.86928
 Alpha virt. eigenvalues --    0.87496   0.88028   0.88935   0.89549   0.90089
 Alpha virt. eigenvalues --    0.90428   0.92224   0.92653   0.93578   0.94242
 Alpha virt. eigenvalues --    0.94809   0.95767   0.96274   0.96905   0.97378
 Alpha virt. eigenvalues --    0.97696   0.98278   0.99131   1.00024   1.01632
 Alpha virt. eigenvalues --    1.02856   1.03313   1.05779   1.07327   1.07933
 Alpha virt. eigenvalues --    1.08663   1.10074   1.10415   1.12329   1.13968
 Alpha virt. eigenvalues --    1.15737   1.17480   1.17714   1.20504   1.23139
 Alpha virt. eigenvalues --    1.24385   1.24724   1.25826   1.28287   1.29312
 Alpha virt. eigenvalues --    1.31759   1.32577   1.33737   1.34901   1.36939
 Alpha virt. eigenvalues --    1.39853   1.40835   1.42185   1.44975   1.46701
 Alpha virt. eigenvalues --    1.47609   1.49632   1.53025   1.54007   1.57185
 Alpha virt. eigenvalues --    1.60483   1.62763   1.65054   1.67909   1.75171
 Alpha virt. eigenvalues --    1.80330   1.92777   1.96973   2.34383   2.38355
  Beta  occ. eigenvalues --  -24.70239 -24.70212 -14.35969 -10.28300 -10.28239
  Beta  occ. eigenvalues --  -10.21858 -10.21767 -10.21197 -10.20619 -10.20608
  Beta  occ. eigenvalues --  -10.20082 -10.19785 -10.18815 -10.18797 -10.18440
  Beta  occ. eigenvalues --  -10.18351 -10.18329 -10.18115 -10.17607 -10.16974
  Beta  occ. eigenvalues --  -10.16747 -10.16679 -10.16212 -10.15125  -1.21086
  Beta  occ. eigenvalues --   -1.21018  -0.94755  -0.88649  -0.85721  -0.80462
  Beta  occ. eigenvalues --   -0.80244  -0.77389  -0.76459  -0.75969  -0.74406
  Beta  occ. eigenvalues --   -0.70474  -0.69673  -0.67615  -0.67154  -0.62873
  Beta  occ. eigenvalues --   -0.62544  -0.61392  -0.60659  -0.56844  -0.55902
  Beta  occ. eigenvalues --   -0.54611  -0.52261  -0.51546  -0.49864  -0.48688
  Beta  occ. eigenvalues --   -0.48346  -0.47681  -0.47416  -0.46437  -0.45244
  Beta  occ. eigenvalues --   -0.44595  -0.44485  -0.44068  -0.42797  -0.42548
  Beta  occ. eigenvalues --   -0.42248  -0.41181  -0.40972  -0.40654  -0.40294
  Beta  occ. eigenvalues --   -0.39745  -0.39553  -0.38930  -0.38522  -0.37572
  Beta  occ. eigenvalues --   -0.36923  -0.36157  -0.35776  -0.35568  -0.35020
  Beta  occ. eigenvalues --   -0.34609  -0.32703  -0.32200  -0.31674  -0.26051
  Beta  occ. eigenvalues --   -0.25753  -0.24359  -0.23799  -0.22622  -0.22174
  Beta virt. eigenvalues --   -0.01813  -0.01232  -0.00930   0.01185   0.01441
  Beta virt. eigenvalues --    0.01987   0.06165   0.09496   0.11299   0.11973
  Beta virt. eigenvalues --    0.12374   0.12628   0.12914   0.13359   0.13720
  Beta virt. eigenvalues --    0.14233   0.14457   0.15231   0.15348   0.16366
  Beta virt. eigenvalues --    0.16875   0.17053   0.17259   0.17868   0.18119
  Beta virt. eigenvalues --    0.18399   0.18992   0.19603   0.19888   0.20379
  Beta virt. eigenvalues --    0.21199   0.21704   0.24772   0.24901   0.26384
  Beta virt. eigenvalues --    0.27876   0.28449   0.28698   0.29130   0.29805
  Beta virt. eigenvalues --    0.30076   0.33508   0.35768   0.36570   0.37402
  Beta virt. eigenvalues --    0.38277   0.39549   0.40103   0.40348   0.42678
  Beta virt. eigenvalues --    0.46050   0.47781   0.48698   0.49698   0.50014
  Beta virt. eigenvalues --    0.50776   0.52281   0.53096   0.54306   0.54866
  Beta virt. eigenvalues --    0.55677   0.56409   0.56980   0.57486   0.58364
  Beta virt. eigenvalues --    0.58629   0.58694   0.59191   0.59643   0.59941
  Beta virt. eigenvalues --    0.60441   0.60696   0.61445   0.61934   0.62714
  Beta virt. eigenvalues --    0.62950   0.63793   0.63984   0.65069   0.65303
  Beta virt. eigenvalues --    0.65708   0.66037   0.66263   0.66715   0.67844
  Beta virt. eigenvalues --    0.68630   0.69806   0.71741   0.74066   0.74298
  Beta virt. eigenvalues --    0.74671   0.75921   0.77285   0.77779   0.78233
  Beta virt. eigenvalues --    0.79186   0.79668   0.80155   0.82047   0.82180
  Beta virt. eigenvalues --    0.83908   0.84021   0.84975   0.85591   0.86804
  Beta virt. eigenvalues --    0.87266   0.87603   0.88200   0.89124   0.89746
  Beta virt. eigenvalues --    0.90202   0.90515   0.92313   0.92745   0.93617
  Beta virt. eigenvalues --    0.94368   0.94929   0.95980   0.96660   0.97058
  Beta virt. eigenvalues --    0.97465   0.97728   0.98424   0.99174   1.00100
  Beta virt. eigenvalues --    1.01655   1.02882   1.03492   1.05844   1.07409
  Beta virt. eigenvalues --    1.08184   1.08799   1.10119   1.10701   1.12607
  Beta virt. eigenvalues --    1.13990   1.15812   1.17666   1.17758   1.20545
  Beta virt. eigenvalues --    1.23320   1.24445   1.24873   1.26067   1.28356
  Beta virt. eigenvalues --    1.29316   1.31804   1.32723   1.33736   1.34915
  Beta virt. eigenvalues --    1.36944   1.39857   1.40857   1.42327   1.45070
  Beta virt. eigenvalues --    1.46845   1.47838   1.49911   1.53057   1.54103
  Beta virt. eigenvalues --    1.57457   1.60536   1.62845   1.65082   1.67958
  Beta virt. eigenvalues --    1.75233   1.80337   1.93350   1.96973   2.34384
  Beta virt. eigenvalues --    2.38355
          Condensed to atoms (all electrons):
               1          2          3          4          5          6
     1  C    5.177319   0.316587  -0.046571   0.006294  -0.000209   0.000657
     2  C    0.316587   4.867014   0.504212  -0.038902   0.005347  -0.047146
     3  C   -0.046571   0.504212   5.085646   0.504111  -0.049857  -0.049535
     4  C    0.006294  -0.038902   0.504111   4.799539   0.303603   0.526444
     5  C   -0.000209   0.005347  -0.049857   0.303603   5.169091  -0.037383
     6  C    0.000657  -0.047146  -0.049535   0.526444  -0.037383   5.139915
     7  C    0.006655  -0.033289  -0.053662  -0.037043   0.006361   0.455182
     8  C   -0.000167   0.005281   0.000945   0.005014  -0.000244  -0.055844
     9  C   -0.052041   0.492153  -0.044408  -0.029173   0.001057  -0.059411
    10  H    0.358735  -0.035409  -0.002074   0.000440  -0.000002  -0.000010
    11  H    0.364107  -0.031232   0.000436  -0.000188   0.000002   0.000019
    12  H    0.361779  -0.028437   0.000372  -0.000219   0.000003   0.000017
    13  H   -0.007495  -0.032095   0.345009  -0.044899  -0.005456   0.004808
    14  H   -0.000000   0.000186  -0.002282  -0.033630   0.365997   0.001471
    15  H    0.000002  -0.000186   0.003026  -0.035126   0.366757  -0.001132
    16  H    0.000002  -0.000029  -0.002673  -0.032432   0.365612  -0.001467
    17  H    0.000002  -0.000128  -0.000001  -0.000019   0.000005  -0.005804
    18  H    0.000001   0.000503  -0.000022  -0.000134   0.000001   0.005904
    19  H    0.000008   0.000712   0.005421  -0.031150  -0.007698   0.331844
    20  C    0.000002  -0.000036  -0.000057   0.000189   0.000022  -0.005231
    21  C    0.000000  -0.000003  -0.000009  -0.000000   0.000001  -0.001047
    22  C    0.000000   0.000006  -0.000003   0.000139   0.000004   0.004322
    23  C    0.000000  -0.000000   0.000000  -0.000002  -0.000000  -0.000043
    24  C    0.000000  -0.000000  -0.000000  -0.000001   0.000000   0.000036
    25  C   -0.000000  -0.000000   0.000000   0.000000  -0.000000  -0.000009
    26  H   -0.000000   0.000000  -0.000000  -0.000000   0.000000   0.000001
    27  H   -0.000000   0.000000  -0.000000  -0.000000   0.000000  -0.000000
    28  H   -0.000000  -0.000000   0.000000   0.000000  -0.000000  -0.000000
    29  F   -0.000000   0.000007   0.000000   0.000000  -0.000000  -0.000046
    30  F   -0.000000  -0.000000   0.000001   0.000115  -0.000006  -0.002622
    31  C   -0.012991  -0.062302   0.008575   0.000075   0.000004   0.008804
    32  C   -0.000111  -0.002392  -0.000066   0.000024  -0.000000  -0.000021
    33  C   -0.002860  -0.001829   0.000023   0.000016  -0.000000  -0.000054
    34  H    0.000003   0.000467  -0.000019  -0.000005  -0.000000  -0.000051
    35  C   -0.000185   0.000191   0.000001   0.000000   0.000000   0.000000
    36  H   -0.000258   0.001046  -0.000021  -0.000012  -0.000000  -0.000023
    37  C    0.000034   0.000013   0.000000   0.000000   0.000000   0.000000
    38  H   -0.000001  -0.000002  -0.000000  -0.000000  -0.000000  -0.000000
    39  H    0.000000   0.000000   0.000000  -0.000000  -0.000000   0.000000
    40  N   -0.000092   0.000061   0.000001  -0.000000  -0.000000   0.000001
    41  C    0.000001  -0.000000  -0.000000   0.000000  -0.000000  -0.000000
    42  H    0.000000   0.000000  -0.000000  -0.000000  -0.000000   0.000000
    43  H    0.000000  -0.000000   0.000000   0.000000   0.000000   0.000000
    44  H   -0.000000  -0.000003   0.000000   0.000000   0.000000  -0.000000
               7          8          9         10         11         12
     1  C    0.006655  -0.000167  -0.052041   0.358735   0.364107   0.361779
     2  C   -0.033289   0.005281   0.492153  -0.035409  -0.031232  -0.028437
     3  C   -0.053662   0.000945  -0.044408  -0.002074   0.000436   0.000372
     4  C   -0.037043   0.005014  -0.029173   0.000440  -0.000188  -0.000219
     5  C    0.006361  -0.000244   0.001057  -0.000002   0.000002   0.000003
     6  C    0.455182  -0.055844  -0.059411  -0.000010   0.000019   0.000017
     7  C    4.936429   0.302070   0.509263  -0.000179  -0.000043   0.000075
     8  C    0.302070   5.278061  -0.034115   0.000002   0.000001   0.000002
     9  C    0.509263  -0.034115   5.066006   0.004079  -0.004825  -0.005936
    10  H   -0.000179   0.000002   0.004079   0.594880  -0.029957  -0.029149
    11  H   -0.000043   0.000001  -0.004825  -0.029957   0.577189  -0.034804
    12  H    0.000075   0.000002  -0.005936  -0.029149  -0.034804   0.568142
    13  H    0.000836   0.000012   0.004645   0.006132   0.000146   0.000176
    14  H   -0.000205   0.000002   0.000013   0.000000   0.000000  -0.000000
    15  H    0.000390  -0.000003  -0.000013   0.000000  -0.000000  -0.000000
    16  H   -0.000186   0.000005   0.000011   0.000000  -0.000000   0.000000
    17  H   -0.031659   0.363906   0.000772  -0.000000   0.000000  -0.000000
    18  H   -0.030875   0.352537  -0.012249  -0.000000  -0.000002   0.000002
    19  H   -0.037308  -0.004768   0.004113  -0.000000   0.000000  -0.000000
    20  C   -0.044363   0.283447  -0.001727  -0.000000   0.000000  -0.000000
    21  C   -0.000870  -0.057753   0.001605  -0.000000  -0.000000   0.000000
    22  C   -0.010179  -0.052603  -0.000450   0.000000  -0.000000   0.000000
    23  C    0.000055   0.006881   0.000024  -0.000000  -0.000000   0.000000
    24  C   -0.000154   0.007069   0.000003  -0.000000  -0.000000   0.000000
    25  C    0.000027  -0.000649  -0.000001   0.000000   0.000000  -0.000000
    26  H    0.000002  -0.000091   0.000000   0.000000  -0.000000   0.000000
    27  H    0.000002  -0.000089  -0.000000   0.000000   0.000000   0.000000
    28  H    0.000000   0.000002  -0.000000   0.000000   0.000000  -0.000000
    29  F   -0.000475  -0.000662   0.000366   0.000000   0.000000  -0.000000
    30  F   -0.002639   0.000470  -0.000014   0.000000   0.000000  -0.000000
    31  C   -0.059567  -0.015841   0.319637   0.000594   0.003980   0.001508
    32  C   -0.003345  -0.002897  -0.029775   0.000050   0.003826  -0.000728
    33  C   -0.001033   0.001322  -0.030663   0.000060  -0.000765   0.008057
    34  H    0.001044   0.000391  -0.001030   0.000001   0.000153  -0.000005
    35  C    0.000079  -0.000068   0.007373   0.000001   0.000001  -0.000186
    36  H    0.000346   0.000048  -0.004509   0.000000   0.000023   0.000447
    37  C    0.000014  -0.000004   0.000519  -0.000001   0.000067  -0.000076
    38  H    0.000001  -0.000000  -0.000212   0.000000  -0.000001   0.000002
    39  H    0.000000  -0.000000  -0.000005  -0.000000   0.000000  -0.000000
    40  N    0.000169  -0.000082   0.003619  -0.000000  -0.000229   0.000050
    41  C   -0.000005   0.000004  -0.000074   0.000000  -0.000002  -0.000001
    42  H   -0.000001  -0.000005  -0.000004  -0.000000  -0.000000   0.000000
    43  H    0.000000  -0.000000   0.000002  -0.000000   0.000000  -0.000000
    44  H    0.000001   0.000001   0.000010   0.000000   0.000006  -0.000000
              13         14         15         16         17         18
     1  C   -0.007495  -0.000000   0.000002   0.000002   0.000002   0.000001
     2  C   -0.032095   0.000186  -0.000186  -0.000029  -0.000128   0.000503
     3  C    0.345009  -0.002282   0.003026  -0.002673  -0.000001  -0.000022
     4  C   -0.044899  -0.033630  -0.035126  -0.032432  -0.000019  -0.000134
     5  C   -0.005456   0.365997   0.366757   0.365612   0.000005   0.000001
     6  C    0.004808   0.001471  -0.001132  -0.001467  -0.005804   0.005904
     7  C    0.000836  -0.000205   0.000390  -0.000186  -0.031659  -0.030875
     8  C    0.000012   0.000002  -0.000003   0.000005   0.363906   0.352537
     9  C    0.004645   0.000013  -0.000013   0.000011   0.000772  -0.012249
    10  H    0.006132   0.000000   0.000000   0.000000  -0.000000  -0.000000
    11  H    0.000146   0.000000  -0.000000  -0.000000   0.000000  -0.000002
    12  H    0.000176  -0.000000  -0.000000   0.000000  -0.000000   0.000002
    13  H    0.612477   0.002733   0.000047   0.000915  -0.000000  -0.000000
    14  H    0.002733   0.582348  -0.029234  -0.034016  -0.000000  -0.000000
    15  H    0.000047  -0.029234   0.576540  -0.030540  -0.000002   0.000000
    16  H    0.000915  -0.034016  -0.030540   0.582798   0.000000  -0.000000
    17  H   -0.000000  -0.000000  -0.000002   0.000000   0.572068  -0.031234
    18  H   -0.000000  -0.000000   0.000000  -0.000000  -0.031234   0.558337
    19  H   -0.000198   0.000097   0.005112   0.000184   0.000442   0.000097
    20  C   -0.000000   0.000000   0.000003  -0.000001  -0.044833  -0.035051
    21  C   -0.000000  -0.000000  -0.000000  -0.000000   0.006176  -0.009393
    22  C   -0.000000  -0.000000   0.000001  -0.000000  -0.008355   0.005950
    23  C   -0.000000  -0.000000  -0.000000   0.000000  -0.000060   0.000221
    24  C   -0.000000  -0.000000  -0.000000   0.000000   0.000658  -0.000109
    25  C    0.000000   0.000000   0.000000  -0.000000  -0.000058  -0.000022
    26  H   -0.000000  -0.000000  -0.000000   0.000000   0.000002   0.000001
    27  H    0.000000  -0.000000  -0.000000   0.000000   0.000003   0.000001
    28  H    0.000000   0.000000  -0.000000  -0.000000   0.000000   0.000000
    29  F   -0.000000   0.000000  -0.000000  -0.000000   0.000157   0.003575
    30  F    0.000000  -0.000000  -0.000006  -0.000000   0.005544   0.000226
    31  C   -0.000226  -0.000000  -0.000000  -0.000000   0.000746   0.012315
    32  C   -0.000002   0.000000   0.000000  -0.000000   0.000208   0.005209
    33  C   -0.000001  -0.000000  -0.000000   0.000000  -0.000117   0.000159
    34  H    0.000000  -0.000000  -0.000000   0.000000   0.000006  -0.000497
    35  C   -0.000000   0.000000   0.000000  -0.000000  -0.000015   0.000077
    36  H    0.000001   0.000000   0.000000  -0.000000   0.000012   0.000009
    37  C   -0.000000  -0.000000  -0.000000   0.000000   0.000000   0.000142
    38  H    0.000000  -0.000000   0.000000   0.000000   0.000000  -0.000004
    39  H   -0.000000  -0.000000  -0.000000   0.000000  -0.000000   0.000001
    40  N   -0.000000  -0.000000  -0.000000   0.000000  -0.000001  -0.000340
    41  C    0.000000   0.000000   0.000000  -0.000000  -0.000000  -0.000030
    42  H    0.000000  -0.000000   0.000000   0.000000   0.000000   0.000050
    43  H   -0.000000  -0.000000  -0.000000   0.000000  -0.000000  -0.000000
    44  H   -0.000000   0.000000   0.000000  -0.000000  -0.000000  -0.000005
              19         20         21         22         23         24
     1  C    0.000008   0.000002   0.000000   0.000000   0.000000   0.000000
     2  C    0.000712  -0.000036  -0.000003   0.000006  -0.000000  -0.000000
     3  C    0.005421  -0.000057  -0.000009  -0.000003   0.000000  -0.000000
     4  C   -0.031150   0.000189  -0.000000   0.000139  -0.000002  -0.000001
     5  C   -0.007698   0.000022   0.000001   0.000004  -0.000000   0.000000
     6  C    0.331844  -0.005231  -0.001047   0.004322  -0.000043   0.000036
     7  C   -0.037308  -0.044363  -0.000870  -0.010179   0.000055  -0.000154
     8  C   -0.004768   0.283447  -0.057753  -0.052603   0.006881   0.007069
     9  C    0.004113  -0.001727   0.001605  -0.000450   0.000024   0.000003
    10  H   -0.000000  -0.000000  -0.000000   0.000000  -0.000000  -0.000000
    11  H    0.000000   0.000000  -0.000000  -0.000000  -0.000000  -0.000000
    12  H   -0.000000  -0.000000   0.000000   0.000000   0.000000   0.000000
    13  H   -0.000198  -0.000000  -0.000000  -0.000000  -0.000000  -0.000000
    14  H    0.000097   0.000000  -0.000000  -0.000000  -0.000000  -0.000000
    15  H    0.005112   0.000003  -0.000000   0.000001  -0.000000  -0.000000
    16  H    0.000184  -0.000001  -0.000000  -0.000000   0.000000   0.000000
    17  H    0.000442  -0.044833   0.006176  -0.008355  -0.000060   0.000658
    18  H    0.000097  -0.035051  -0.009393   0.005950   0.000221  -0.000109
    19  H    0.594082  -0.004023   0.000158  -0.000245   0.000041  -0.000177
    20  C   -0.004023   5.624597   0.263173   0.258480  -0.106150  -0.100310
    21  C    0.000158   0.263173   4.910035   0.023763   0.413645  -0.041301
    22  C   -0.000245   0.258480   0.023763   4.933912  -0.041689   0.411542
    23  C    0.000041  -0.106150   0.413645  -0.041689   5.186784  -0.045231
    24  C   -0.000177  -0.100310  -0.041301   0.411542  -0.045231   5.179071
    25  C   -0.000019  -0.023541  -0.004317  -0.004690   0.447523   0.447773
    26  H   -0.000000   0.006794  -0.032521   0.000061   0.350019   0.004710
    27  H    0.000006   0.006654   0.000054  -0.031710   0.004672   0.350470
    28  H    0.000000   0.000687   0.003583   0.003594  -0.029518  -0.029410
    29  F   -0.000001  -0.075072   0.274197   0.003071  -0.063492  -0.000152
    30  F    0.014214  -0.079452   0.002906   0.265251  -0.000165  -0.062828
    31  C   -0.000201   0.000071  -0.000219  -0.000021  -0.000004   0.000000
    32  C   -0.000002  -0.001211   0.001350  -0.000013   0.000024   0.000000
    33  C    0.000000   0.000200  -0.000011  -0.000000  -0.000000  -0.000000
    34  H    0.000001  -0.000148   0.000141  -0.000003   0.000005   0.000000
    35  C   -0.000000   0.000005  -0.000001   0.000000  -0.000000  -0.000000
    36  H    0.000000   0.000003   0.000000  -0.000000   0.000000  -0.000000
    37  C   -0.000000  -0.000003   0.000001   0.000000   0.000000   0.000000
    38  H    0.000000  -0.000000   0.000000   0.000000  -0.000000   0.000000
    39  H   -0.000000   0.000000  -0.000000   0.000000   0.000000  -0.000000
    40  N   -0.000000   0.000018  -0.000036   0.000000  -0.000000  -0.000000
    41  C    0.000000   0.000000   0.000003  -0.000000   0.000000   0.000000
    42  H   -0.000000  -0.000005   0.000040  -0.000000  -0.000000   0.000000
    43  H   -0.000000   0.000000  -0.000000   0.000000  -0.000000  -0.000000
    44  H    0.000000   0.000001  -0.000004   0.000000  -0.000000  -0.000000
              25         26         27         28         29         30
     1  C   -0.000000  -0.000000  -0.000000  -0.000000  -0.000000  -0.000000
     2  C   -0.000000   0.000000   0.000000  -0.000000   0.000007  -0.000000
     3  C    0.000000  -0.000000  -0.000000   0.000000   0.000000   0.000001
     4  C    0.000000  -0.000000  -0.000000   0.000000   0.000000   0.000115
     5  C   -0.000000   0.000000   0.000000  -0.000000  -0.000000  -0.000006
     6  C   -0.000009   0.000001  -0.000000  -0.000000  -0.000046  -0.002622
     7  C    0.000027   0.000002   0.000002   0.000000  -0.000475  -0.002639
     8  C   -0.000649  -0.000091  -0.000089   0.000002  -0.000662   0.000470
     9  C   -0.000001   0.000000  -0.000000  -0.000000   0.000366  -0.000014
    10  H    0.000000   0.000000   0.000000   0.000000   0.000000   0.000000
    11  H    0.000000  -0.000000   0.000000   0.000000   0.000000   0.000000
    12  H   -0.000000   0.000000   0.000000  -0.000000  -0.000000  -0.000000
    13  H    0.000000  -0.000000   0.000000   0.000000  -0.000000   0.000000
    14  H    0.000000  -0.000000  -0.000000   0.000000   0.000000  -0.000000
    15  H    0.000000  -0.000000  -0.000000  -0.000000  -0.000000  -0.000006
    16  H   -0.000000   0.000000   0.000000  -0.000000  -0.000000  -0.000000
    17  H   -0.000058   0.000002   0.000003   0.000000   0.000157   0.005544
    18  H   -0.000022   0.000001   0.000001   0.000000   0.003575   0.000226
    19  H   -0.000019  -0.000000   0.000006   0.000000  -0.000001   0.014214
    20  C   -0.023541   0.006794   0.006654   0.000687  -0.075072  -0.079452
    21  C   -0.004317  -0.032521   0.000054   0.003583   0.274197   0.002906
    22  C   -0.004690   0.000061  -0.031710   0.003594   0.003071   0.265251
    23  C    0.447523   0.350019   0.004672  -0.029518  -0.063492  -0.000165
    24  C    0.447773   0.004710   0.350470  -0.029410  -0.000152  -0.062828
    25  C    4.974288  -0.033248  -0.033244   0.357606   0.003486   0.003536
    26  H   -0.033248   0.559510  -0.000119  -0.004291  -0.001920   0.000000
    27  H   -0.033244  -0.000119   0.555840  -0.004223   0.000000  -0.001962
    28  H    0.357606  -0.004291  -0.004223   0.557561  -0.000020  -0.000020
    29  F    0.003486  -0.001920   0.000000  -0.000020   9.179055  -0.000000
    30  F    0.003536   0.000000  -0.001962  -0.000020  -0.000000   9.189345
    31  C    0.000000   0.000000  -0.000000  -0.000000  -0.001368   0.000000
    32  C   -0.000000   0.000000   0.000000  -0.000000  -0.000008  -0.000000
    33  C    0.000000  -0.000000  -0.000000   0.000000   0.000006   0.000000
    34  H   -0.000001   0.000004  -0.000000   0.000000   0.007953   0.000000
    35  C    0.000000  -0.000000  -0.000000   0.000000  -0.000001   0.000000
    36  H    0.000000  -0.000000  -0.000000   0.000000   0.000000   0.000000
    37  C   -0.000000   0.000000   0.000000  -0.000000  -0.000003  -0.000000
    38  H   -0.000000   0.000000   0.000000  -0.000000  -0.000000  -0.000000
    39  H   -0.000000  -0.000000  -0.000000   0.000000   0.000000   0.000000
    40  N    0.000000  -0.000000  -0.000000   0.000000  -0.000202   0.000000
    41  C   -0.000000   0.000000  -0.000000   0.000000   0.000159   0.000000
    42  H   -0.000000   0.000001   0.000000  -0.000000   0.000270   0.000000
    43  H   -0.000000   0.000000  -0.000000   0.000000   0.000001   0.000000
    44  H    0.000000  -0.000000  -0.000000   0.000000  -0.000029  -0.000000
              31         32         33         34         35         36
     1  C   -0.012991  -0.000111  -0.002860   0.000003  -0.000185  -0.000258
     2  C   -0.062302  -0.002392  -0.001829   0.000467   0.000191   0.001046
     3  C    0.008575  -0.000066   0.000023  -0.000019   0.000001  -0.000021
     4  C    0.000075   0.000024   0.000016  -0.000005   0.000000  -0.000012
     5  C    0.000004  -0.000000  -0.000000  -0.000000   0.000000  -0.000000
     6  C    0.008804  -0.000021  -0.000054  -0.000051   0.000000  -0.000023
     7  C   -0.059567  -0.003345  -0.001033   0.001044   0.000079   0.000346
     8  C   -0.015841  -0.002897   0.001322   0.000391  -0.000068   0.000048
     9  C    0.319637  -0.029775  -0.030663  -0.001030   0.007373  -0.004509
    10  H    0.000594   0.000050   0.000060   0.000001   0.000001   0.000000
    11  H    0.003980   0.003826  -0.000765   0.000153   0.000001   0.000023
    12  H    0.001508  -0.000728   0.008057  -0.000005  -0.000186   0.000447
    13  H   -0.000226  -0.000002  -0.000001   0.000000  -0.000000   0.000001
    14  H   -0.000000   0.000000  -0.000000  -0.000000   0.000000   0.000000
    15  H   -0.000000   0.000000  -0.000000  -0.000000   0.000000   0.000000
    16  H   -0.000000  -0.000000   0.000000   0.000000  -0.000000  -0.000000
    17  H    0.000746   0.000208  -0.000117   0.000006  -0.000015   0.000012
    18  H    0.012315   0.005209   0.000159  -0.000497   0.000077   0.000009
    19  H   -0.000201  -0.000002   0.000000   0.000001  -0.000000   0.000000
    20  C    0.000071  -0.001211   0.000200  -0.000148   0.000005   0.000003
    21  C   -0.000219   0.001350  -0.000011   0.000141  -0.000001   0.000000
    22  C   -0.000021  -0.000013  -0.000000  -0.000003   0.000000  -0.000000
    23  C   -0.000004   0.000024  -0.000000   0.000005  -0.000000   0.000000
    24  C    0.000000   0.000000  -0.000000   0.000000  -0.000000  -0.000000
    25  C    0.000000  -0.000000   0.000000  -0.000001   0.000000   0.000000
    26  H    0.000000   0.000000  -0.000000   0.000004  -0.000000  -0.000000
    27  H   -0.000000   0.000000  -0.000000  -0.000000  -0.000000  -0.000000
    28  H   -0.000000  -0.000000   0.000000   0.000000   0.000000   0.000000
    29  F   -0.001368  -0.000008   0.000006   0.007953  -0.000001   0.000000
    30  F    0.000000  -0.000000   0.000000   0.000000   0.000000   0.000000
    31  C    4.962068   0.553093   0.451611  -0.029938  -0.015634  -0.038963
    32  C    0.553093   4.983413  -0.073406   0.360342  -0.031908   0.005716
    33  C    0.451611  -0.073406   5.097281   0.004175   0.436644   0.356766
    34  H   -0.029938   0.360342   0.004175   0.549371   0.000129  -0.000151
    35  C   -0.015634  -0.031908   0.436644   0.000129   4.904404  -0.036270
    36  H   -0.038963   0.005716   0.356766  -0.000151  -0.036270   0.600092
    37  C   -0.019982  -0.032596  -0.066134   0.002674   0.596382   0.004821
    38  H    0.003724   0.000732  -0.027069   0.000013   0.352434  -0.004017
    39  H    0.000100   0.003278   0.004226  -0.000164  -0.025664  -0.000144
    40  N   -0.019864   0.183116  -0.029603  -0.051047  -0.031710   0.000104
    41  C    0.003248  -0.033833   0.000389  -0.002479   0.003464   0.000007
    42  H   -0.000083   0.003455  -0.000002  -0.000079  -0.000021   0.000000
    43  H   -0.000189   0.002395  -0.000023   0.000128   0.000470  -0.000000
    44  H    0.000503  -0.000720  -0.000028   0.002993  -0.000196  -0.000000
              37         38         39         40         41         42
     1  C    0.000034  -0.000001   0.000000  -0.000092   0.000001   0.000000
     2  C    0.000013  -0.000002   0.000000   0.000061  -0.000000   0.000000
     3  C    0.000000  -0.000000   0.000000   0.000001  -0.000000  -0.000000
     4  C    0.000000  -0.000000  -0.000000  -0.000000   0.000000  -0.000000
     5  C    0.000000  -0.000000  -0.000000  -0.000000  -0.000000  -0.000000
     6  C    0.000000  -0.000000   0.000000   0.000001  -0.000000   0.000000
     7  C    0.000014   0.000001   0.000000   0.000169  -0.000005  -0.000001
     8  C   -0.000004  -0.000000  -0.000000  -0.000082   0.000004  -0.000005
     9  C    0.000519  -0.000212  -0.000005   0.003619  -0.000074  -0.000004
    10  H   -0.000001   0.000000  -0.000000  -0.000000   0.000000  -0.000000
    11  H    0.000067  -0.000001   0.000000  -0.000229  -0.000002  -0.000000
    12  H   -0.000076   0.000002  -0.000000   0.000050  -0.000001   0.000000
    13  H   -0.000000   0.000000  -0.000000  -0.000000   0.000000   0.000000
    14  H   -0.000000  -0.000000  -0.000000  -0.000000   0.000000  -0.000000
    15  H   -0.000000   0.000000  -0.000000  -0.000000   0.000000   0.000000
    16  H    0.000000   0.000000   0.000000   0.000000  -0.000000   0.000000
    17  H    0.000000   0.000000  -0.000000  -0.000001  -0.000000   0.000000
    18  H    0.000142  -0.000004   0.000001  -0.000340  -0.000030   0.000050
    19  H   -0.000000   0.000000  -0.000000  -0.000000   0.000000  -0.000000
    20  C   -0.000003  -0.000000   0.000000   0.000018   0.000000  -0.000005
    21  C    0.000001   0.000000  -0.000000  -0.000036   0.000003   0.000040
    22  C    0.000000   0.000000   0.000000   0.000000  -0.000000  -0.000000
    23  C    0.000000  -0.000000   0.000000  -0.000000   0.000000  -0.000000
    24  C    0.000000   0.000000  -0.000000  -0.000000   0.000000   0.000000
    25  C   -0.000000  -0.000000  -0.000000   0.000000  -0.000000  -0.000000
    26  H    0.000000   0.000000  -0.000000  -0.000000   0.000000   0.000001
    27  H    0.000000   0.000000  -0.000000  -0.000000  -0.000000   0.000000
    28  H   -0.000000  -0.000000   0.000000   0.000000   0.000000  -0.000000
    29  F   -0.000003  -0.000000   0.000000  -0.000202   0.000159   0.000270
    30  F   -0.000000  -0.000000   0.000000   0.000000   0.000000   0.000000
    31  C   -0.019982   0.003724   0.000100  -0.019864   0.003248  -0.000083
    32  C   -0.032596   0.000732   0.003278   0.183116  -0.033833   0.003455
    33  C   -0.066134  -0.027069   0.004226  -0.029603   0.000389  -0.000002
    34  H    0.002674   0.000013  -0.000164  -0.051047  -0.002479  -0.000079
    35  C    0.596382   0.352434  -0.025664  -0.031710   0.003464  -0.000021
    36  H    0.004821  -0.004017  -0.000144   0.000104   0.000007   0.000000
    37  C    4.891514  -0.038765   0.366754   0.223944  -0.034567   0.003075
    38  H   -0.038765   0.591696  -0.003827   0.004417  -0.000140  -0.000002
    39  H    0.366754  -0.003827   0.577697  -0.056292  -0.002681  -0.000045
    40  N    0.223944   0.004417  -0.056292   7.248528   0.257415  -0.057327
    41  C   -0.034567  -0.000140  -0.002681   0.257415   4.927240   0.366972
    42  H    0.003075  -0.000002  -0.000045  -0.057327   0.366972   0.609746
    43  H   -0.001253   0.000002   0.003723  -0.042557   0.377204  -0.040951
    44  H    0.002374   0.000003   0.000115  -0.043686   0.379462  -0.042201
              43         44
     1  C    0.000000  -0.000000
     2  C   -0.000000  -0.000003
     3  C    0.000000   0.000000
     4  C    0.000000   0.000000
     5  C    0.000000   0.000000
     6  C    0.000000  -0.000000
     7  C    0.000000   0.000001
     8  C   -0.000000   0.000001
     9  C    0.000002   0.000010
    10  H   -0.000000   0.000000
    11  H    0.000000   0.000006
    12  H   -0.000000  -0.000000
    13  H   -0.000000  -0.000000
    14  H   -0.000000   0.000000
    15  H   -0.000000   0.000000
    16  H    0.000000  -0.000000
    17  H   -0.000000  -0.000000
    18  H   -0.000000  -0.000005
    19  H   -0.000000   0.000000
    20  C    0.000000   0.000001
    21  C   -0.000000  -0.000004
    22  C    0.000000   0.000000
    23  C   -0.000000  -0.000000
    24  C   -0.000000  -0.000000
    25  C   -0.000000   0.000000
    26  H    0.000000  -0.000000
    27  H   -0.000000  -0.000000
    28  H    0.000000   0.000000
    29  F    0.000001  -0.000029
    30  F    0.000000  -0.000000
    31  C   -0.000189   0.000503
    32  C    0.002395  -0.000720
    33  C   -0.000023  -0.000028
    34  H    0.000128   0.002993
    35  C    0.000470  -0.000196
    36  H   -0.000000  -0.000000
    37  C   -0.001253   0.002374
    38  H    0.000002   0.000003
    39  H    0.003723   0.000115
    40  N   -0.042557  -0.043686
    41  C    0.377204   0.379462
    42  H   -0.040951  -0.042201
    43  H    0.574568  -0.024511
    44  H   -0.024511   0.568587
          Atomic-Atomic Spin Densities.
               1          2          3          4          5          6
     1  C    0.010771  -0.001454   0.000467  -0.000024  -0.000000   0.000011
     2  C   -0.001454  -0.007617   0.001343  -0.000050  -0.000009   0.000448
     3  C    0.000467   0.001343   0.001769  -0.000130   0.000008  -0.000320
     4  C   -0.000024  -0.000050  -0.000130  -0.002612   0.000024   0.000267
     5  C   -0.000000  -0.000009   0.000008   0.000024   0.000217  -0.000000
     6  C    0.000011   0.000448  -0.000320   0.000267  -0.000000   0.001540
     7  C   -0.000049   0.000070   0.000280  -0.000185  -0.000003   0.000547
     8  C    0.000001  -0.000098   0.000017  -0.000019  -0.000001   0.000631
     9  C    0.000005  -0.001529  -0.000290   0.000123   0.000002  -0.000367
    10  H    0.000284   0.000056  -0.000092  -0.000004  -0.000000   0.000001
    11  H   -0.001227  -0.000124   0.000005   0.000004   0.000000  -0.000003
    12  H   -0.003002   0.000952  -0.000128  -0.000004  -0.000000   0.000005
    13  H   -0.000005  -0.000130   0.000079   0.000054  -0.000003   0.000003
    14  H    0.000000  -0.000000   0.000006   0.000021  -0.000013   0.000000
    15  H    0.000000   0.000000   0.000000   0.000012  -0.000015  -0.000002
    16  H    0.000000  -0.000002   0.000005   0.000061  -0.000029  -0.000002
    17  H   -0.000000   0.000010  -0.000001   0.000001  -0.000000   0.000178
    18  H   -0.000000   0.000017   0.000000  -0.000001  -0.000000   0.000019
    19  H   -0.000000   0.000003   0.000005   0.000022  -0.000001  -0.000000
    20  C   -0.000000  -0.000025   0.000000  -0.000001   0.000000  -0.000505
    21  C    0.000000   0.000001   0.000000  -0.000000   0.000000  -0.000001
    22  C   -0.000000   0.000000  -0.000000   0.000001   0.000000  -0.000012
    23  C    0.000000   0.000000   0.000000  -0.000000  -0.000000   0.000001
    24  C    0.000000   0.000000   0.000000   0.000000  -0.000000   0.000002
    25  C   -0.000000  -0.000000  -0.000000  -0.000000   0.000000  -0.000000
    26  H    0.000000   0.000000   0.000000  -0.000000  -0.000000   0.000000
    27  H    0.000000   0.000000   0.000000   0.000000  -0.000000   0.000000
    28  H   -0.000000  -0.000000  -0.000000   0.000000   0.000000  -0.000000
    29  F   -0.000000  -0.000000  -0.000000   0.000000   0.000000  -0.000001
    30  F    0.000000  -0.000000   0.000000  -0.000000   0.000000  -0.000004
    31  C    0.000765   0.002618  -0.000335   0.000025   0.000000  -0.000171
    32  C   -0.000435  -0.000525   0.000002  -0.000001  -0.000000   0.000044
    33  C   -0.002505   0.001399  -0.000032  -0.000001  -0.000000  -0.000049
    34  H   -0.000027  -0.000027   0.000001   0.000000   0.000000  -0.000001
    35  C    0.000078  -0.000029   0.000001  -0.000000  -0.000000   0.000000
    36  H   -0.000001   0.000014   0.000005  -0.000001  -0.000000   0.000004
    37  C    0.000023  -0.000011  -0.000000   0.000000   0.000000   0.000000
    38  H    0.000001  -0.000000   0.000000   0.000000   0.000000  -0.000000
    39  H    0.000000  -0.000000  -0.000000   0.000000   0.000000  -0.000000
    40  N    0.000017   0.000009   0.000000  -0.000000   0.000000  -0.000000
    41  C   -0.000000  -0.000000   0.000000   0.000000   0.000000  -0.000000
    42  H    0.000000   0.000000   0.000000  -0.000000  -0.000000   0.000000
    43  H   -0.000000  -0.000000  -0.000000   0.000000   0.000000  -0.000000
    44  H   -0.000001  -0.000000  -0.000000   0.000000   0.000000  -0.000000
               7          8          9         10         11         12
     1  C   -0.000049   0.000001   0.000005   0.000284  -0.001227  -0.003002
     2  C    0.000070  -0.000098  -0.001529   0.000056  -0.000124   0.000952
     3  C    0.000280   0.000017  -0.000290  -0.000092   0.000005  -0.000128
     4  C   -0.000185  -0.000019   0.000123  -0.000004   0.000004  -0.000004
     5  C   -0.000003  -0.000001   0.000002  -0.000000   0.000000  -0.000000
     6  C    0.000547   0.000631  -0.000367   0.000001  -0.000003   0.000005
     7  C   -0.007592  -0.000390   0.000752  -0.000003   0.000009  -0.000020
     8  C   -0.000390   0.004549  -0.000065   0.000000   0.000000  -0.000002
[...]
    21  C    0.000006  -0.002769   0.003789   0.002011  -0.001299  -0.000939
    22  C    0.000001  -0.002370   0.002011   0.003852  -0.000875  -0.001868
    23  C   -0.000001   0.001130  -0.001299  -0.000875   0.000835   0.000627
    24  C   -0.000005   0.001360  -0.000939  -0.001868   0.000627   0.001335
    25  C    0.000001  -0.000740   0.000730   0.000834  -0.000514  -0.000754
    26  H   -0.000000   0.000041  -0.000092  -0.000017   0.000034   0.000020
    27  H   -0.000000   0.000030  -0.000012  -0.000071   0.000011   0.000059
    28  H    0.000000  -0.000024   0.000045   0.000036  -0.000064  -0.000078
    29  F    0.000000   0.000265  -0.001050   0.000034  -0.000093  -0.000004
    30  F    0.000007  -0.000009   0.000008   0.000030  -0.000001  -0.000029
    31  C    0.000002  -0.000588   0.000073  -0.000002   0.000001   0.000000
    32  C   -0.000001  -0.000659   0.000505  -0.000006   0.000007   0.000000
    33  C    0.000001   0.000143  -0.000011   0.000000  -0.000000  -0.000000
    34  H    0.000000   0.000028  -0.000052   0.000000  -0.000001  -0.000000
    35  C   -0.000000  -0.000002   0.000000  -0.000000   0.000000   0.000000
    36  H    0.000000   0.000000  -0.000000   0.000000  -0.000000  -0.000000
    37  C   -0.000000  -0.000004   0.000003  -0.000000   0.000000   0.000000
    38  H    0.000000   0.000000  -0.000000   0.000000  -0.000000  -0.000000
    39  H    0.000000   0.000000  -0.000000   0.000000  -0.000000  -0.000000
    40  N    0.000000   0.000022  -0.000033   0.000000  -0.000000  -0.000000
    41  C    0.000000   0.000002  -0.000008   0.000000  -0.000000  -0.000000
    42  H   -0.000000  -0.000005   0.000038  -0.000000   0.000000   0.000000
    43  H    0.000000   0.000000  -0.000000   0.000000  -0.000000  -0.000000
    44  H    0.000000   0.000000  -0.000006   0.000000  -0.000000  -0.000000
              25         26         27         28         29         30
     1  C   -0.000000   0.000000   0.000000  -0.000000  -0.000000   0.000000
     2  C   -0.000000   0.000000   0.000000  -0.000000  -0.000000  -0.000000
     3  C   -0.000000   0.000000   0.000000  -0.000000  -0.000000   0.000000
     4  C   -0.000000  -0.000000   0.000000   0.000000   0.000000  -0.000000
     5  C    0.000000  -0.000000  -0.000000   0.000000   0.000000   0.000000
     6  C   -0.000000   0.000000   0.000000  -0.000000  -0.000001  -0.000004
     7  C    0.000000   0.000000  -0.000000   0.000000  -0.000009   0.000004
     8  C   -0.000057   0.000003   0.000002  -0.000000  -0.000223  -0.000073
     9  C   -0.000000  -0.000000   0.000000  -0.000000   0.000003  -0.000000
    10  H    0.000000  -0.000000  -0.000000   0.000000   0.000000   0.000000
    11  H    0.000000  -0.000000  -0.000000   0.000000   0.000000   0.000000
    12  H   -0.000000   0.000000   0.000000  -0.000000  -0.000000  -0.000000
    13  H   -0.000000   0.000000   0.000000  -0.000000  -0.000000  -0.000000
    14  H    0.000000  -0.000000  -0.000000   0.000000   0.000000   0.000000
    15  H   -0.000000   0.000000   0.000000  -0.000000  -0.000000  -0.000000
    16  H   -0.000000   0.000000   0.000000  -0.000000  -0.000000  -0.000000
    17  H   -0.000003   0.000000   0.000000  -0.000000  -0.000004  -0.000035
    18  H   -0.000002   0.000000   0.000000  -0.000000  -0.000102  -0.000001
    19  H    0.000001  -0.000000  -0.000000   0.000000   0.000000   0.000007
    20  C   -0.000740   0.000041   0.000030  -0.000024   0.000265  -0.000009
    21  C    0.000730  -0.000092  -0.000012   0.000045  -0.001050   0.000008
    22  C    0.000834  -0.000017  -0.000071   0.000036   0.000034   0.000030
    23  C   -0.000514   0.000034   0.000011  -0.000064  -0.000093  -0.000001
    24  C   -0.000754   0.000020   0.000059  -0.000078  -0.000004  -0.000029
    25  C    0.000631  -0.000024  -0.000036   0.000026   0.000007   0.000003
    26  H   -0.000024   0.000063   0.000000  -0.000013  -0.000008  -0.000000
    27  H   -0.000036   0.000000   0.000025  -0.000008  -0.000000  -0.000002
    28  H    0.000026  -0.000013  -0.000008   0.000096   0.000000   0.000000
    29  F    0.000007  -0.000008  -0.000000   0.000000   0.001961   0.000000
    30  F    0.000003  -0.000000  -0.000002   0.000000   0.000000   0.000107
    31  C   -0.000000   0.000000   0.000000  -0.000000  -0.000034  -0.000000
    32  C   -0.000000   0.000001   0.000000  -0.000000  -0.000510  -0.000000
    33  C    0.000000  -0.000000  -0.000000   0.000000   0.000002   0.000000
    34  H    0.000000  -0.000000  -0.000000   0.000000   0.000102   0.000000
    35  C   -0.000000   0.000000   0.000000  -0.000000  -0.000000  -0.000000
    36  H    0.000000  -0.000000  -0.000000   0.000000   0.000000   0.000000
    37  C   -0.000000   0.000000   0.000000  -0.000000  -0.000001  -0.000000
    38  H    0.000000  -0.000000  -0.000000   0.000000   0.000000   0.000000
    39  H    0.000000  -0.000000  -0.000000   0.000000   0.000000   0.000000
    40  N    0.000000  -0.000000  -0.000000   0.000000   0.000021   0.000000
    41  C    0.000000  -0.000000  -0.000000   0.000000   0.000005   0.000000
    42  H   -0.000000   0.000000   0.000000  -0.000000  -0.000023  -0.000000
    43  H    0.000000  -0.000000  -0.000000   0.000000   0.000000   0.000000
    44  H    0.000000  -0.000000  -0.000000   0.000000   0.000003   0.000000
              31         32         33         34         35         36
     1  C    0.000765  -0.000435  -0.002505  -0.000027   0.000078  -0.000001
     2  C    0.002618  -0.000525   0.001399  -0.000027  -0.000029   0.000014
     3  C   -0.000335   0.000002  -0.000032   0.000001   0.000001   0.000005
     4  C    0.000025  -0.000001  -0.000001   0.000000  -0.000000  -0.000001
     5  C    0.000000  -0.000000  -0.000000   0.000000  -0.000000  -0.000000
     6  C   -0.000171   0.000044  -0.000049  -0.000001   0.000000   0.000004
     7  C    0.001997  -0.000114   0.000366   0.000021  -0.000003   0.000013
     8  C    0.000064  -0.000752   0.001854  -0.000012  -0.000047  -0.000007
     9  C    0.002228  -0.002023  -0.002920   0.000016  -0.000168  -0.000118
    10  H   -0.000061   0.000004  -0.000005   0.000000   0.000000   0.000000
    11  H    0.000772   0.001643  -0.000835   0.000045   0.000047   0.000000
    12  H   -0.001580  -0.000623   0.004804  -0.000008  -0.000286  -0.000015
    13  H    0.000005  -0.000001   0.000001  -0.000000  -0.000000   0.000000
    14  H   -0.000000   0.000000  -0.000000   0.000000   0.000000   0.000000
    15  H    0.000000   0.000000  -0.000000  -0.000000   0.000000   0.000000
    16  H    0.000000  -0.000000   0.000000  -0.000000  -0.000000  -0.000000
    17  H    0.000138   0.000077  -0.000231  -0.000001   0.000004  -0.000002
    18  H    0.000042   0.001820  -0.001248  -0.000032   0.000047   0.000005
    19  H    0.000002  -0.000001   0.000001   0.000000  -0.000000   0.000000
    20  C   -0.000588  -0.000659   0.000143   0.000028  -0.000002   0.000000
    21  C    0.000073   0.000505  -0.000011  -0.000052   0.000000  -0.000000
    22  C   -0.000002  -0.000006   0.000000   0.000000  -0.000000   0.000000
    23  C    0.000001   0.000007  -0.000000  -0.000001   0.000000  -0.000000
    24  C    0.000000   0.000000  -0.000000  -0.000000   0.000000  -0.000000
    25  C   -0.000000  -0.000000   0.000000   0.000000  -0.000000   0.000000
    26  H    0.000000   0.000001  -0.000000  -0.000000   0.000000  -0.000000
    27  H    0.000000   0.000000  -0.000000  -0.000000   0.000000  -0.000000
    28  H   -0.000000  -0.000000   0.000000   0.000000  -0.000000   0.000000
    29  F   -0.000034  -0.000510   0.000002   0.000102  -0.000000   0.000000
    30  F   -0.000000  -0.000000   0.000000   0.000000  -0.000000   0.000000
    31  C   -0.139042   0.036439  -0.055585  -0.001071  -0.003369  -0.000857
    32  C    0.036439   0.363411  -0.026856   0.001179   0.006492  -0.000019
    33  C   -0.055585  -0.026856   0.691935   0.000213  -0.051585   0.003899
    34  H   -0.001071   0.001179   0.000213  -0.013574  -0.000058   0.000007
    35  C   -0.003369   0.006492  -0.051585  -0.000058  -0.146499  -0.000459
    36  H   -0.000857  -0.000019   0.003899   0.000007  -0.000459  -0.028087
    37  C    0.005984   0.016922  -0.026432   0.000016   0.037905  -0.000020
    38  H    0.000047  -0.000023  -0.001632  -0.000000   0.001318   0.000066
    39  H   -0.000058   0.000007   0.000185   0.000011  -0.001229   0.000006
    40  N   -0.006408  -0.124463   0.011046  -0.000374  -0.006715  -0.000042
    41  C   -0.000124  -0.003852   0.000092   0.000473  -0.000200  -0.000000
    42  H    0.000045   0.005540  -0.000103  -0.000304   0.000088  -0.000000
    43  H    0.000012   0.000052  -0.000005   0.000025   0.000007   0.000000
    44  H    0.000040   0.000522  -0.000008   0.000308   0.000006   0.000000
              37         38         39         40         41         42
     1  C    0.000023   0.000001   0.000000   0.000017  -0.000000   0.000000
     2  C   -0.000011  -0.000000  -0.000000   0.000009  -0.000000   0.000000
     3  C   -0.000000   0.000000  -0.000000   0.000000   0.000000   0.000000
     4  C    0.000000   0.000000   0.000000  -0.000000   0.000000  -0.000000
     5  C    0.000000   0.000000   0.000000   0.000000   0.000000  -0.000000
     6  C    0.000000  -0.000000  -0.000000  -0.000000  -0.000000   0.000000
     7  C   -0.000003   0.000000  -0.000000  -0.000012   0.000000   0.000001
     8  C   -0.000041   0.000000   0.000000   0.000078   0.000002  -0.000002
     9  C    0.000073   0.000004   0.000000   0.000044   0.000005  -0.000004
    10  H    0.000000  -0.000000  -0.000000  -0.000000   0.000000  -0.000000
    11  H    0.000058   0.000000   0.000000  -0.000199   0.000001  -0.000000
    12  H   -0.000093  -0.000004  -0.000000   0.000068  -0.000000   0.000000
    13  H   -0.000000  -0.000000  -0.000000   0.000000  -0.000000   0.000000
    14  H    0.000000   0.000000   0.000000  -0.000000   0.000000  -0.000000
    15  H    0.000000  -0.000000  -0.000000  -0.000000  -0.000000   0.000000
    16  H   -0.000000  -0.000000  -0.000000   0.000000  -0.000000   0.000000
    17  H    0.000002  -0.000000  -0.000000  -0.000003  -0.000000   0.000000
    18  H    0.000120  -0.000001  -0.000000  -0.000287  -0.000012   0.000027
    19  H   -0.000000   0.000000   0.000000   0.000000   0.000000  -0.000000
    20  C   -0.000004   0.000000   0.000000   0.000022   0.000002  -0.000005
    21  C    0.000003  -0.000000  -0.000000  -0.000033  -0.000008   0.000038
    22  C   -0.000000   0.000000   0.000000   0.000000   0.000000  -0.000000
    23  C    0.000000  -0.000000  -0.000000  -0.000000  -0.000000   0.000000
    24  C    0.000000  -0.000000  -0.000000  -0.000000  -0.000000   0.000000
    25  C   -0.000000   0.000000   0.000000   0.000000   0.000000  -0.000000
    26  H    0.000000  -0.000000  -0.000000  -0.000000  -0.000000   0.000000
    27  H    0.000000  -0.000000  -0.000000  -0.000000  -0.000000   0.000000
    28  H   -0.000000   0.000000   0.000000   0.000000   0.000000  -0.000000
    29  F   -0.000001   0.000000   0.000000   0.000021   0.000005  -0.000023
    30  F   -0.000000   0.000000   0.000000   0.000000   0.000000  -0.000000
    31  C    0.005984   0.000047  -0.000058  -0.006408  -0.000124   0.000045
    32  C    0.016922  -0.000023   0.000007  -0.124463  -0.003852   0.005540
    33  C   -0.026432  -0.001632   0.000185   0.011046   0.000092  -0.000103
    34  H    0.000016  -0.000000   0.000011  -0.000374   0.000473  -0.000304
    35  C    0.037905   0.001318  -0.001229  -0.006715  -0.000200   0.000088
    36  H   -0.000020   0.000066   0.000006  -0.000042  -0.000000  -0.000000
    37  C    0.380989  -0.001390   0.001716  -0.127498  -0.003653   0.005073
    38  H   -0.001390   0.005647   0.000128   0.000130   0.000004  -0.000002
    39  H    0.001716   0.000128  -0.015682  -0.000441   0.000447  -0.000219
    40  N   -0.127498   0.000130  -0.000441   0.511819   0.006482  -0.015439
    41  C   -0.003653   0.000004   0.000447   0.006482  -0.018144  -0.012246
    42  H    0.005073  -0.000002  -0.000219  -0.015439  -0.012246   0.059966
    43  H    0.000236   0.000002   0.000226  -0.003317   0.002361  -0.006561
    44  H    0.000161   0.000000   0.000025  -0.004419   0.002527  -0.007591
              43         44
     1  C   -0.000000  -0.000001
     2  C   -0.000000  -0.000000
     3  C   -0.000000  -0.000000
     4  C    0.000000   0.000000
     5  C    0.000000   0.000000
     6  C   -0.000000  -0.000000
     7  C   -0.000000  -0.000000
     8  C    0.000000   0.000000
     9  C    0.000000   0.000004
    10  H    0.000000  -0.000000
    11  H    0.000000   0.000006
    12  H   -0.000000  -0.000000
    13  H   -0.000000  -0.000000
    14  H    0.000000   0.000000
    15  H   -0.000000  -0.000000
    16  H   -0.000000  -0.000000
    17  H   -0.000000  -0.000000
    18  H   -0.000000  -0.000002
    19  H    0.000000   0.000000
    20  C    0.000000   0.000000
    21  C   -0.000000  -0.000006
    22  C    0.000000   0.000000
    23  C   -0.000000  -0.000000
    24  C   -0.000000  -0.000000
    25  C    0.000000   0.000000
    26  H   -0.000000  -0.000000
    27  H   -0.000000  -0.000000
    28  H    0.000000   0.000000
    29  F    0.000000   0.000003
    30  F    0.000000   0.000000
    31  C    0.000012   0.000040
    32  C    0.000052   0.000522
    33  C   -0.000005  -0.000008
    34  H    0.000025   0.000308
    35  C    0.000007   0.000006
    36  H    0.000000   0.000000
    37  C    0.000236   0.000161
    38  H    0.000002   0.000000
    39  H    0.000226   0.000025
    40  N   -0.003317  -0.004419
    41  C    0.002361   0.002527
    42  H   -0.006561  -0.007591
    43  H    0.008568   0.002473
    44  H    0.002473   0.011562
 Mulliken charges and spin densities:
               1          2
     1  C   -0.469208   0.003694
     2  C    0.119636  -0.004693
     3  C   -0.206519   0.002665
     4  C    0.136931  -0.002415
     5  C   -0.483014   0.000179
     6  C   -0.212547   0.002262
     7  C    0.128076  -0.003820
     8  C   -0.381584   0.001700
     9  C   -0.104636   0.008116
    10  H    0.131808  -0.000402
    11  H    0.152093   0.000568
    12  H    0.158911   0.001212
    13  H    0.112435  -0.000175
    14  H    0.146521  -0.000055
    15  H    0.144363  -0.000012
    16  H    0.151817  -0.000103
    17  H    0.171577   0.000438
    18  H    0.174649  -0.000040
    19  H    0.129257  -0.000186
    20  C    0.076867  -0.000297
    21  C    0.246656   0.000724
    22  C    0.239864   0.000119
    23  C   -0.123538  -0.000002
    24  C   -0.121661  -0.000061
    25  C   -0.134440   0.000101
    26  H    0.151085   0.000008
    27  H    0.153643   0.000001
    28  H    0.144448   0.000016
    29  F   -0.328851   0.000340
    30  F   -0.331892   0.000003
    31  C   -0.053264  -0.157987
    32  C    0.106805   0.273804
    33  C   -0.127334   0.545897
    34  H    0.155621  -0.013097
    35  C   -0.159799  -0.164656
    36  H    0.114927  -0.025609
    37  C    0.101053   0.290135
    38  H    0.121016   0.004295
    39  H    0.132926  -0.014881
    40  N   -0.588375   0.240087
    41  C   -0.241758  -0.025840
    42  H    0.157117   0.028280
    43  H    0.150990   0.004077
    44  H    0.157326   0.005609
 Sum of Mulliken charges =  -0.00000   1.00000
 Mulliken charges and spin densities with hydrogens summed into heavy atoms:
               1          2
     1  C   -0.026396   0.005071
     2  C    0.119636  -0.004693
     3  C   -0.094084   0.002491
     4  C    0.136931  -0.002415
     5  C   -0.040313   0.000008
     6  C   -0.083290   0.002076
     7  C    0.128076  -0.003820
     8  C   -0.035358   0.002098
     9  C   -0.104636   0.008116
    20  C    0.076867  -0.000297
    21  C    0.246656   0.000724
    22  C    0.239864   0.000119
    23  C    0.027547   0.000006
    24  C    0.031982  -0.000061
    25  C    0.010008   0.000117
    29  F   -0.328851   0.000340
    30  F   -0.331892   0.000003
    31  C   -0.053264  -0.157987
    32  C    0.262426   0.260707
    33  C   -0.012407   0.520288
    35  C   -0.038784  -0.160361
    37  C    0.233979   0.275254
    40  N   -0.588375   0.240087
    41  C    0.223676   0.012127
 Electronic spatial extent (au):  <R**2>=           8169.7547
 Charge=             -0.0000 electrons
 Dipole moment (field-independent basis, Debye):
    X=              0.6661    Y=             -2.3208    Z=             -1.8201  Tot=              3.0236
 Quadrupole moment (field-independent basis, Debye-Ang):
   XX=           -125.1650   YY=           -127.6240   ZZ=           -138.8304
   XY=              1.3169   XZ=             -3.4763   YZ=              2.6153
 Traceless Quadrupole moment (field-independent basis, Debye-Ang):
   XX=              5.3748   YY=              2.9158   ZZ=             -8.2906
   XY=              1.3169   XZ=             -3.4763   YZ=              2.6153
 Octapole moment (field-independent basis, Debye-Ang**2):
  XXX=             59.5809  YYY=            -22.0125  ZZZ=             -2.4775  XYY=             -0.6627
  XXY=            -64.9655  XXZ=            -14.6352  XZZ=             -7.8675  YZZ=            -15.5919
  YYZ=            -26.8254  XYZ=              2.5156
 Hexadecapole moment (field-independent basis, Debye-Ang**3):
 XXXX=          -5665.6480 YYYY=          -3819.7024 ZZZZ=           -921.8511 XXXY=             16.9874
 XXXZ=            -50.0785 YYYX=             84.0351 YYYZ=             37.5272 ZZZX=             18.4881
 ZZZY=             48.4637 XXYY=          -1491.1229 XXZZ=          -1150.0728 YYZZ=           -795.7770
 XXYZ=             53.5167 YYXZ=              2.3775 ZZXY=             -6.8818
 N-N= 2.006965594142D+03 E-N=-6.501000918753D+03  KE= 1.060619094413D+03
 Unable to Open any file for archive entry.
 1\1\GINC-N2\SP\UB3LYP TD-FC\6-31G\C21H20F2N1(2)\HPCMGAC13\13-Jun-2025\
 0\\# td=(50-50,nstates=3) ub3lyp/6-31g\\[No Title]\\0,2\C,0,-2.799224,
 2.693685,-0.987292\C,0,-1.368985,2.431175,-0.564409\C,0,-0.388851,3.40
 3847,-0.790978\C,0,0.949508,3.208385,-0.415119\C,0,1.990737,4.275115,-
 0.676155\C,0,1.29224,1.998463,0.194548\C,0,0.338553,0.992277,0.426723\
 C,0,0.780816,-0.296189,1.127678\C,0,-1.006262,1.205084,0.052548\H,0,-2
 .898016,3.689249,-1.430754\H,0,-3.139863,1.9561,-1.72399\H,0,-3.488345
 ,2.625155,-0.137785\H,0,-0.677005,4.33854,-1.266309\H,0,1.626174,5.269
 789,-0.393322\H,0,2.909656,4.080472,-0.113901\H,0,2.258623,4.320652,-1
 .740583\H,0,1.074897,-0.056685,2.155751\H,0,-0.063528,-0.985023,1.1820
 44\H,0,2.31751,1.83736,0.513143\C,0,1.945803,-0.999491,0.458996\C,0,1.
 785191,-1.911469,-0.589534\C,0,3.273784,-0.793341,0.845746\C,0,2.83420
 3,-2.573509,-1.217846\C,0,4.369005,-1.419887,0.261025\C,0,4.140137,-2.
 32127,-0.783646\H,0,2.622703,-3.266757,-2.021951\H,0,5.365887,-1.20133
 5,0.621931\H,0,4.97492,-2.824365,-1.257724\F,0,0.488222,-2.186596,-1.0
 29363\F,0,3.517243,0.115767,1.879803\C,0,-2.069272,0.183738,0.333577\C
 ,0,-2.276043,-0.849498,-0.549055\C,0,-2.882529,0.292288,1.507133\H,0,-
 1.673263,-0.988101,-1.435202\C,0,-3.88782,-0.690148,1.713999\H,0,-2.71
 9978,1.093154,2.216785\C,0,-4.07762,-1.716239,0.825739\H,0,-4.528533,-
 0.63797,2.588521\H,0,-4.834649,-2.480308,0.944162\N,0,-3.282573,-1.812
 782,-0.335352\C,0,-3.312973,-3.01998,-1.153852\H,0,-2.601391,-3.780786
 ,-0.798373\H,0,-4.318944,-3.44912,-1.139053\H,0,-3.060402,-2.771291,-2
 .18885\\Version=ES64L-G16RevC.02\State=2-A\HF=-1066.4261822\S2=0.76987
 8\S2-1=0.\S2A=0.750257\RMSD=6.514e-09\PG=C01 [X(C21H20F2N1)]\\@
 The archive entry for this job was punched.


 A true friend is someone who is there for
 you when he'd rather be anywhere else.
                               -- Len Wein
 Job cpu time:       0 days  0 hours 24 minutes 29.2 seconds.
 Elapsed time:       0 days  0 hours  1 minutes 34.3 seconds.
 File lengths (MBytes):  RWF=    547 Int=      0 D2E=      0 Chk=     16 Scr=      2
 Normal termination of Gaussian 16 at Fri Jun 13 11:23:29 2025.
