 Entering Gaussian System, Link 0=g16
 Input=M1443.gjf
 Output=M1443.log
 Initial command:
 /hpc/softwares/Gaussian/g16/l1.exe "/hpc/home/hpcmgac13/pbs.11116.admin1.x8z/Gau-184439.inp" -scrdir="/hpc/home/hpcmgac13/pbs.11116.admin1.x8z/"
 Default linda workers: n2
 Default is to use  16 SMP processors on each worker.
 Entering Link 1 = /hpc/softwares/Gaussian/g16/l1.exe PID=    184440.
  
 Copyright (c) 1988-2021, Gaussian, Inc.  All Rights Reserved.
  
 This is part of the Gaussian(R) 16 program.  It is based on
 the Gaussian(R) 09 system (copyright 2009, Gaussian, Inc.),
 the Gaussian(R) 03 system (copyright 2003, Gaussian, Inc.),
 the Gaussian(R) 98 system (copyright 1998, Gaussian, Inc.),
 the Gaussian(R) 94 system (copyright 1995, Gaussian, Inc.),
 the Gaussian 92(TM) system (copyright 1992, Gaussian, Inc.),
 the Gaussian 90(TM) system (copyright 1990, Gaussian, Inc.),
 the Gaussian 88(TM) system (copyright 1988, Gaussian, Inc.),
 the Gaussian 86(TM) system (copyright 1986, Carnegie Mellon
 University), and the Gaussian 82(TM) system (copyright 1983,
 Carnegie Mellon University). Gaussian is a federally registered
 trademark of Gaussian, Inc.
  
 This software contains proprietary and confidential information,
 including trade secrets, belonging to Gaussian, Inc.
  
 This software is provided under written license and may be
 used, copied, transmitted, or stored only in accord with that
 written license.
  
 The following legend is applicable only to US Government
 contracts under FAR:
  
                    RESTRICTED RIGHTS LEGEND
  
 Use, reproduction and disclosure by the US Government is
 subject to restrictions as set forth in subparagraphs (a)
 and (c) of the Commercial Computer Software - Restricted
 Rights clause in FAR 52.227-19.
  
 Gaussian, Inc.
 340 Quinnipiac St., Bldg. 40, Wallingford CT 06492
  
  
 ---------------------------------------------------------------
 Warning -- This program may not be used in any manner that
 competes with the business of Gaussian, Inc. or will provide
 assistance to any competitor of Gaussian, Inc.  The licensee
 of this program is prohibited from giving any competitor of
 Gaussian, Inc. access to this program.  By using this program,
 the user acknowledges that Gaussian, Inc. is engaged in the
 business of creating and licensing software in the field of
 computational chemistry and represents and warrants to the
 licensee that it is not a competitor of Gaussian, Inc. and that
 it will not use this program in any manner prohibited above.
 ---------------------------------------------------------------
  

 Cite this work as:
 Gaussian 16, Revision C.02,
 M. J. Frisch, G. W. Trucks, H. B. Schlegel, G. E. Scuseria, 
 M. A. Robb, J. R. Cheeseman, G. Scalmani, V. Barone, 
 G. A. Petersson, H. Nakatsuji, X. Li, M. Caricato, A. V. Marenich, 
 J. Bloino, B. G. Janesko, R. Gomperts, B. Mennucci, H. P. Hratchian, 
 J. V. Ortiz, A. F. Izmaylov, J. L. Sonnenberg, D. Williams-Young, 
 F. Ding, F. Lipparini, F. Egidi, J. Goings, B. Peng, A. Petrone, 
 T. Henderson, D. Ranasinghe, V. G. Zakrzewski, J. Gao, N. Rega, 
 G. Zheng, W. Liang, M. Hada, M. Ehara, K. Toyota, R. Fukuda, 
 J. Hasegawa, M. Ishida, T. Nakajima, Y. Honda, O. Kitao, H. Nakai, 
 T. Vreven, K. Throssell, J. A. Montgomery, Jr., J. E. Peralta, 
 F. Ogliaro, M. J. Bearpark, J. J. Heyd, E. N. Brothers, K. N. Kudin, 
 V. N. Staroverov, T. A. Keith, R. Kobayashi, J. Normand, 
 K. Raghavachari, A. P. Rendell, J. C. Burant, S. S. Iyengar, 
 J. Tomasi, M. Cossi, J. M. Millam, M. Klene, C. Adamo, R. Cammi, 
 J. W. Ochterski, R. L. Martin, K. Morokuma, O. Farkas, 
 J. B. Foresman, and D. J. Fox, Gaussian, Inc., Wallingford CT, 2019.
 
 ******************************************
 Gaussian 16:  ES64L-G16RevC.02  7-Dec-2021
                13-Jun-2025 
 ******************************************
 SetLPE:    new flags="-opt 'Tsnet.Node.lindarsharg: ssh'  -nodelist 'n2.head.cm.mguif.local' -env GAUSS_MDEF=4294967296 -env GAUSS_EXEDIR="/hpc/softwares/Gaussian/g16/bsd:/hpc/softwares/Gaussian/g16""
 Will use up to    1 processors via Linda.
 ----------------------------------
 # td=(50-50,nstates=3) b3lyp/6-31g
 ----------------------------------
 1/38=1,172=1/1;
 2/12=2,17=6,18=5,40=1/2;
 3/5=1,6=6,11=9,25=1,30=1,74=-5/1,2,3,8;
 4//1;
 5/5=2,38=5/2;
 8/6=1,10=2,108=3/1;
 9/41=3,42=1,48=2,70=2/14;
 6/7=2,8=2,9=2,10=2/1;
 99/5=1,9=1/99;
 ----------
 [No Title]
 ----------
 Symbolic Z-matrix:
 Charge =  1 Multiplicity = 1
 C                    -0.0532    3.42031   0.05882 
 C                     1.25934   3.29557   0.54259 
 C                     1.9699    2.09003   0.47661 
 C                     1.34509   0.94204  -0.08035 
 C                     0.02022   1.0574   -0.56086 
 C                    -0.65952   2.28516  -0.49023 
 H                     1.74703   4.16595   0.97345 
 H                    -1.6714    2.36459  -0.88069 
 C                    -3.58889  -0.68788   1.18708 
 C                    -2.34305  -0.33166   0.71133 
 C                    -2.02382  -0.48005  -0.65855 
 C                    -3.03651  -0.99626  -1.49637 
 C                    -4.27449  -1.33799  -0.98506 
 H                    -3.86678  -0.59019   2.22798 
 H                    -1.61231   0.08099   1.39474 
 H                    -2.85656  -1.12446  -2.5569 
 H                    -5.07208  -1.73105  -1.60087 
 C                     2.10692  -0.33657  -0.24096 
 C                     2.21242  -1.23226   0.77337 
 C                     3.54473  -2.73278  -0.53693 
 C                     3.50792  -1.91052  -1.60034 
 C                     2.84048  -0.55158  -1.56694 
 H                     1.72923  -1.05684   1.72939 
 H                     4.04683  -3.69255  -0.5646 
 H                     4.00428  -2.21457  -2.51554 
 H                     2.14145  -0.4372   -2.41437 
 N                    -4.54681  -1.18572   0.34532 
 N                     2.93795  -2.41498   0.68996 
 C                    -0.65882  -0.15109  -1.19184 
 H                    -0.71696  -0.04473  -2.28313 
 H                    -0.00622  -1.02391  -1.00313 
 C                    -0.77497   4.748     0.11733 
 H                    -0.77267   5.16131   1.1329 
 H                    -0.29291   5.48988  -0.53144 
 H                    -1.81641   4.65429  -0.20577 
 C                     3.38791   2.02797   1.00311 
 H                     3.73871   3.02222   1.29334 
 H                     3.46685   1.37549   1.8806 
 H                     4.08178   1.63168   0.25342 
 C                     2.94503  -3.38251   1.78764 
 H                     2.19031  -4.17065   1.65476 
 H                     3.92876  -3.85474   1.86189 
 H                     2.74865  -2.86728   2.73113 
 C                    -5.87181  -1.59024   0.88971 
 H                    -6.61573  -1.54459   0.09481 
 H                    -5.81532  -2.60852   1.2824 
 H                    -6.15974  -0.90275   1.68539 
 H                     3.584     0.252    -1.72167 
 
                          Input orientation:                          
 ---------------------------------------------------------------------
 Center     Atomic      Atomic             Coordinates (Angstroms)
 Number     Number       Type             X           Y           Z
 ---------------------------------------------------------------------
      1          6           0       -0.053197    3.420308    0.058819
      2          6           0        1.259341    3.295572    0.542586
      3          6           0        1.969902    2.090025    0.476612
      4          6           0        1.345093    0.942036   -0.080353
      5          6           0        0.020219    1.057405   -0.560861
      6          6           0       -0.659518    2.285159   -0.490229
      7          1           0        1.747026    4.165953    0.973449
      8          1           0       -1.671399    2.364585   -0.880692
      9          6           0       -3.588891   -0.687876    1.187083
     10          6           0       -2.343047   -0.331663    0.711327
     11          6           0       -2.023822   -0.480047   -0.658554
     12          6           0       -3.036514   -0.996257   -1.496366
     13          6           0       -4.274494   -1.337992   -0.985056
     14          1           0       -3.866778   -0.590186    2.227981
     15          1           0       -1.612310    0.080992    1.394741
     16          1           0       -2.856564   -1.124463   -2.556896
     17          1           0       -5.072081   -1.731049   -1.600867
     18          6           0        2.106916   -0.336572   -0.240959
     19          6           0        2.212419   -1.232255    0.773374
     20          6           0        3.544727   -2.732782   -0.536925
     21          6           0        3.507919   -1.910520   -1.600340
     22          6           0        2.840475   -0.551575   -1.566944
     23          1           0        1.729228   -1.056840    1.729386
     24          1           0        4.046834   -3.692547   -0.564595
     25          1           0        4.004281   -2.214570   -2.515536
     26          1           0        2.141452   -0.437198   -2.414373
     27          7           0       -4.546812   -1.185722    0.345322
     28          7           0        2.937951   -2.414979    0.689959
     29          6           0       -0.658818   -0.151089   -1.191843
     30          1           0       -0.716961   -0.044730   -2.283131
     31          1           0       -0.006217   -1.023913   -1.003133
     32          6           0       -0.774970    4.747997    0.117327
     33          1           0       -0.772670    5.161306    1.132898
     34          1           0       -0.292910    5.489882   -0.531438
     35          1           0       -1.816407    4.654290   -0.205767
     36          6           0        3.387910    2.027967    1.003113
     37          1           0        3.738712    3.022219    1.293338
     38          1           0        3.466850    1.375494    1.880596
     39          1           0        4.081778    1.631683    0.253421
     40          6           0        2.945033   -3.382514    1.787644
     41          1           0        2.190311   -4.170645    1.654755
     42          1           0        3.928764   -3.854744    1.861888
     43          1           0        2.748645   -2.867277    2.731128
     44          6           0       -5.871813   -1.590240    0.889706
     45          1           0       -6.615732   -1.544587    0.094805
     46          1           0       -5.815317   -2.608520    1.282402
     47          1           0       -6.159740   -0.902746    1.685386
     48          1           0        3.584002    0.252000   -1.721674
 ---------------------------------------------------------------------
                    Distance matrix (angstroms):
                    1          2          3          4          5
     1  C    0.000000
     2  C    1.404402   0.000000
     3  C    2.457058   1.400926   0.000000
     4  C    2.848932   2.436091   1.420730   0.000000
     5  C    2.443912   2.786110   2.438015   1.414033   0.000000
     6  C    1.399158   2.402012   2.808328   2.447538   1.405137
     7  H    2.152519   1.086758   2.146159   3.415507   3.872859
     8  H    2.148444   3.388465   3.895732   3.429783   2.161616
     9  C    5.536360   6.307820   6.254733   5.348570   4.373441
    10  C    4.443700   5.114930   4.951888   3.981387   3.022085
    11  C    4.428403   5.145600   4.883001   3.702192   2.559571
    12  C    5.552011   6.405583   6.203385   4.996054   3.799515
    13  C    6.445963   7.377461   7.271881   6.131621   4.935831
    14  H    5.944134   6.649569   6.657151   5.902517   5.059737
    15  H    3.920019   4.393868   4.208493   3.415191   2.728170
    16  H    5.946072   6.788532   6.544454   5.296943   4.125601
    17  H    7.381073   8.363505   8.276838   7.116001   5.898187
    18  C    4.343973   3.811141   2.534177   1.496999   2.529785
    19  C    5.223978   4.632800   3.344313   2.491715   3.439254
    20  C    7.152656   6.536772   5.173664   4.307103   5.175736
    21  C    6.622091   6.062312   4.762729   3.889120   4.696078
    22  C    5.176128   4.663758   3.451387   2.583988   3.399245
    23  H    5.100263   4.535722   3.395604   2.723641   3.554712
    24  H    8.233566   7.604589   6.231845   5.386395   6.227013
    25  H    7.405557   6.873752   5.623272   4.792239   5.513558
    26  H    5.080700   4.843067   3.843707   2.825619   3.188883
    27  N    6.441287   7.337051   7.294883   6.278782   5.168226
    28  N    6.587555   5.953977   4.612775   3.794750   4.704802
    29  C    3.832207   4.308950   3.836209   2.538896   1.523052
    30  H    4.234596   4.800840   4.403702   3.174587   2.173557
    31  H    4.569579   4.759079   3.973827   2.557834   2.127954
    32  C    1.512329   2.535509   3.837737   4.361087   3.835718
    33  H    2.168493   2.821081   4.169554   4.874335   4.509933
    34  H    2.165410   2.894479   4.206603   4.854836   4.443621
    35  H    2.168324   3.444760   4.623552   4.877668   4.054241
    36  C    3.830342   2.519864   1.513870   2.554652   3.837883
    37  H    4.007628   2.604924   2.159795   3.455951   4.596274
    38  H    4.459918   3.217152   2.173150   2.921482   4.235700
    39  H    4.509442   3.289117   2.172536   2.841912   4.181999
    40  C    7.632602   6.999183   5.711249   4.975033   5.812305
    41  H    8.074832   7.605789   6.374370   5.464842   6.078714
    42  H    8.487252   7.745540   6.410648   5.784181   6.728718
    43  H    7.384123   6.707343   5.501284   4.938142   5.803846
    44  C    7.723487   8.651301   8.672225   7.709550   6.620439
    45  H    8.229116   9.254427   9.331093   8.341985   7.157940
    46  H    8.428876   9.244264   9.128815   8.107714   7.133730
    47  H    7.656656   8.600850   8.746936   7.927394   6.861466
    48  H    5.141746   4.449073   3.288786   2.860559   3.833629
                    6          7          8          9         10
     6  C    0.000000
     7  H    3.386915   0.000000
     8  H    1.087508   4.285837   0.000000
     9  C    4.498171   7.216461   4.155717   0.000000
    10  C    3.335531   6.084896   3.202404   1.380347   0.000000
    11  C    3.088045   6.202261   2.874975   2.428788   1.414389
    12  C    4.174939   7.458596   3.679382   2.757012   2.407590
    13  C    5.141997   8.389747   4.527259   2.368732   2.760598
    14  H    5.093407   7.463880   4.818113   1.081773   2.165371
    15  H    3.052749   5.305613   3.224265   2.130998   1.082273
    16  H    4.552323   7.851425   4.048176   3.839829   3.401987
    17  H    6.069115   9.375604   5.371918   3.325767   3.840853
    18  C    3.819524   4.677290   4.688408   5.882596   4.550719
    19  C    4.713482   5.421925   5.545921   5.841464   4.644048
    20  C    6.546571   7.287352   7.301322   7.618553   6.479922
    21  C    6.016943   6.829982   6.754239   7.722001   6.486170
    22  C    4.632097   5.468482   5.415897   6.995712   5.666373
    23  H    4.669235   5.277246   5.484790   5.358416   4.259783
    24  H    7.608433   8.331310   8.335884   8.390514   7.331719
    25  H    6.789731   7.614413   7.473601   8.584663   7.365226
    26  H    4.354192   5.729041   4.973932   6.772751   5.467346
    27  N    5.277899   8.285371   4.730305   1.368950   2.391643
    28  N    6.035389   6.693828   6.823290   6.769762   5.677112
    29  C    2.535265   5.395686   2.729606   3.812185   2.547801
    30  H    2.940439   5.865697   2.946623   4.550165   3.419542
    31  H    3.411720   5.823697   3.777531   4.212543   2.979825
    32  C    2.539296   2.726203   2.735010   6.213795   5.349266
    33  H    3.304477   2.713857   3.561447   6.492070   5.728570
    34  H    3.225887   2.859862   3.433612   7.209820   6.295865
    35  H    2.651809   3.785113   2.391506   5.798316   5.096875
    36  C    4.321793   2.695248   5.409126   7.489019   6.204584
    37  H    4.802999   2.318894   5.867554   8.214004   6.969581
    38  H    4.845123   3.401084   5.916470   7.383897   6.167372
    39  H    4.843546   3.520232   5.909518   8.067914   6.733705
    40  C    7.092532   7.686188   7.839682   7.093230   6.199189
    41  H    7.375628   8.376130   8.003157   6.763695   6.014913
    42  H    8.017680   8.359479   8.807021   8.185325   7.285019
    43  H    6.967088   7.318401   7.743023   6.877371   6.036080
    44  C    6.640102   9.549213   6.034768   2.472737   3.750737
    45  H    7.105329  10.164546   6.378060   3.329984   4.484096
    46  H    7.326157  10.157656   6.825160   2.941927   4.191284
    47  H    6.719262   9.418891   6.115996   2.627497   3.980210
    48  H    4.863913   5.094821   5.726212   7.797091   6.433511
                   11         12         13         14         15
    11  C    0.000000
    12  C    1.412072   0.000000
    13  C    2.430678   1.382322   0.000000
    14  H    3.426471   3.837316   3.324012   0.000000
    15  H    2.167978   3.398135   3.842418   2.495475   0.000000
    16  H    2.170814   1.083302   2.127628   4.919454   4.314710
    17  H    3.427075   2.166650   1.081602   4.173057   4.922111
    18  C    4.154271   5.335363   6.502224   6.468772   4.084424
    19  C    4.534531   5.723523   6.721852   6.283691   4.091365
    20  C    6.008190   6.873775   7.955280   8.195476   6.184148
    21  C    5.790801   6.608804   7.827663   8.413411   6.257266
    22  C    4.948906   5.894211   7.181910   7.706503   5.385073
    23  H    4.485569   5.755123   6.594840   5.637521   3.545776
    24  H    6.868904   7.636229   8.658246   8.946976   7.078454
    25  H    6.541787   7.217741   8.464566   9.332371   7.218446
    26  H    4.520425   5.288347   6.634662   7.594319   5.372951
    27  N    2.805570   2.389291   1.366473   2.088424   3.364097
    28  N    5.493782   6.518207   7.482308   7.211083   5.237506
    29  C    1.501948   2.541748   3.811117   4.709460   2.766482
    30  H    2.129938   2.627685   4.001695   5.528924   3.787374
    31  H    2.117842   3.070300   4.279855   5.052935   3.090332
    32  C    5.430844   6.380834   7.106418   6.519995   4.910587
    33  H    6.049756   7.067786   7.680454   6.622112   5.155885
    34  H    6.217095   7.108337   7.916985   7.573252   5.891271
    35  H    5.158435   5.923089   6.523567   6.134466   4.849571
    36  C    6.191778   7.527719   8.602031   7.809323   5.380175
    37  H    7.020153   8.356691   9.402871   8.471511   6.106925
    38  H    6.327543   7.702131   8.689268   7.600439   5.263996
    39  H    6.524527   7.787034   8.954333   8.486173   6.010815
    40  C    6.252817   7.228959   7.999344   7.375077   5.737562
    41  H    6.060596   6.879390   7.535664   7.059504   5.709987
    42  H    7.292084   8.244023   9.040607   8.459423   6.812617
    43  H    6.321808   7.405436   8.091552   7.014422   5.431036
    44  C    4.293795   3.753009   2.475841   2.609838   4.603416
    45  H    4.773514   3.955160   2.586538   3.608056   5.419093
    46  H    4.761632   4.247669   3.021546   2.960506   4.991128
    47  H    4.772688   4.459465   3.297704   2.376926   4.661688
    48  H    5.754460   6.740930   8.051499   8.474855   6.061596
                   16         17         18         19         20
    16  H    0.000000
    17  H    2.488062   0.000000
    18  C    5.533577   7.438542   0.000000
    19  C    6.066045   7.677874   1.357295   0.000000
    20  C    6.902427   8.739841   2.810110   2.396562   0.000000
    21  C    6.483790   8.581877   2.507596   2.787989   1.344738
    22  C    5.810719   8.000053   1.530546   2.516916   2.512882
    23  H    6.277442   7.602825   2.131594   1.085451   3.352758
    24  H    7.630283   9.384879   3.889806   3.347876   1.083525
    25  H    6.947031   9.135139   3.507217   3.872033   2.096338
    26  H    5.047060   7.373663   2.176016   3.286165   3.280807
    27  N    3.359101   2.088287   6.733266   6.772931   8.285213
    28  N    6.766380   8.359202   2.424253   1.390033   1.405141
    29  C    2.764220   4.705366   2.930507   3.643487   4.976329
    30  H    2.412192   4.719770   3.497130   4.397011   5.332621
    31  H    3.247887   5.149787   2.349187   2.849865   3.968222
    32  C    6.780139   7.962122   5.855466   6.717016   8.663134
    33  H    7.580771   8.571054   6.356584   7.065241   9.151221
    34  H    7.377287   8.725021   6.308019   7.291525   9.074122
    35  H    6.324849   7.301936   6.348418   7.200109   9.133469
    36  C    7.848881   9.616775   2.963057   3.473270   5.006100
    37  H    8.690048  10.421135   4.037116   4.549778   6.042146
    38  H    8.119525   9.730598   3.046570   3.098369   4.767432
    39  H    7.977143   9.926706   2.831699   3.459334   4.467843
    40  C    7.591597   8.859089   3.754388   2.487786   2.487048
    41  H    7.244872   8.324244   4.277944   3.067810   2.950484
    42  H    8.545219   9.875017   4.485380   3.317853   2.675927
    43  H    7.900567   9.012267   3.955956   2.606460   3.366304
    44  C    4.603014   2.619609   8.155379   8.092990   9.592284
    45  H    4.619455   2.300637   8.812300   8.859698  10.249186
    46  H    5.069206   3.104126   8.381178   8.160745   9.536027
    47  H    5.381179   3.559290   8.506995   8.428131  10.122469
    48  H    6.638760   8.881151   2.172721   3.210844   3.211557
                   21         22         23         24         25
    21  C    0.000000
    22  C    1.514374   0.000000
    23  H    3.870347   3.515104   0.000000
    24  H    2.130450   3.510799   4.192922   0.000000
    25  H    1.084622   2.240496   4.953339   2.447937   0.000000
    26  H    2.168077   1.104469   4.210062   4.201126   2.576707
    27  N    8.318030   7.657083   6.428135   8.997937   9.075474
    28  N    2.413465   2.928376   2.094269   2.106112   3.384143
    29  C    4.541384   3.542053   3.880300   5.922713   5.268264
    30  H    4.668724   3.664037   4.807130   6.241288   5.201187
    31  H    3.673129   2.940177   3.237208   4.872489   4.448497
    32  C    8.101195   6.632773   6.524253   9.744619   8.845934
    33  H    8.706593   7.278803   6.729088  10.222515   9.514929
    34  H    8.387777   6.884009   7.215257  10.156352   9.042183
    35  H    8.566797   7.116206   6.995238  10.206666   9.294981
    36  C    4.722716   3.682243   3.576973   5.967928   5.546163
    37  H    5.723509   4.664766   4.568029   6.973875   6.480896
    38  H    4.787117   3.998934   2.993066   5.656888   5.701173
    39  H    4.038929   3.101802   3.865375   5.386817   4.739915
    40  C    3.736582   4.390718   2.624945   2.615935   4.582953
    41  H    4.176111   4.888735   3.148642   2.932707   4.950560
    42  H    3.993011   4.883870   3.561430   2.434762   4.675223
    43  H    4.500388   4.883066   2.306595   3.637053   5.434163
    44  C    9.709906   9.111417   7.665860  10.242765  10.465309
    45  H   10.271112   9.652323   8.517518  10.896736  10.956616
    46  H    9.783667   9.341977   7.715417  10.092004  10.535845
    47  H   10.260372   9.576264   7.890595  10.817558  11.075918
    48  H    2.167257   1.105670   4.130746   4.136725   2.625037
                   26         27         28         29         30
    26  H    0.000000
    27  N    7.273863   0.000000
    28  N    3.766020   7.592860   0.000000
    29  C    3.068868   4.306952   4.647916   0.000000
    30  H    2.888214   4.783136   5.274062   1.097999   0.000000
    31  H    2.635966   4.739358   3.670116   1.106039   1.761349
    32  C    6.465390   7.034756   8.088381   5.072323   5.360578
    33  H    7.240061   7.426250   8.447781   5.799907   6.226971
    34  H    6.678461   7.964175   8.626535   5.691272   5.820668
    35  H    6.816586   6.470282   8.566260   5.040241   5.254047
    36  C    4.394304   8.586053   4.476639   5.093341   5.652030
    37  H    5.316571   9.341060   5.528870   5.965256   6.484622
    38  H    4.846575   8.551940   4.008121   5.365769   6.071073
    39  H    3.893874   9.077377   4.227810   5.266907   5.680876
    40  C    5.193994   7.939391   1.463245   5.683942   6.412660
    41  H    5.522573   7.484197   2.138261   5.690122   6.401746
    42  H    5.758517   9.014380   2.104294   6.639898   7.299325
    43  H    5.722774   7.857696   2.099233   5.863291   6.717141
    44  C    8.744076   1.488495   8.850539   5.794766   6.247239
    45  H    9.176631   2.114704   9.611693   6.251570   6.534497
    46  H    9.038305   2.124048   8.775429   6.224977   6.728988
    47  H    9.270089   2.115983   9.276082   6.253285   6.790373
    48  H    1.742348   8.511736   3.653236   4.294732   4.347593
                   31         32         33         34         35
    31  H    0.000000
    32  C    5.929701   0.000000
    33  H    6.588400   1.096455   0.000000
    34  H    6.537141   1.097120   1.762994   0.000000
    35  H    6.012867   1.094423   1.771574   1.767857   0.000000
    36  C    4.985889   5.051015   5.210094   5.280922   5.953476
    37  H    5.972391   4.973393   4.995398   5.066867   5.980829
    38  H    5.112264   5.698766   5.732796   6.073046   6.558675
    39  H    5.034165   5.772169   6.066085   5.885541   6.643462
    40  C    4.696947   9.095801   9.340603   9.725319   9.551713
    41  H    4.668086   9.523589   9.804943  10.211347   9.868881
    42  H    5.630810   9.958703  10.194315  10.529605  10.473101
    43  H    4.993191   8.788641   8.911349   9.472988   9.275722
    44  C    6.189409   8.169922   8.464265   9.125346   7.525991
    45  H    6.720287   8.585547   8.954776   9.479136   7.845377
    46  H    6.440520   8.993378   9.263954   9.968506   8.423440
    47  H    6.716298   7.961498   8.130098   8.955428   7.302168
    48  H    3.877361   6.526603   7.157546   6.624388   7.130396
                   36         37         38         39         40
    36  C    0.000000
    37  H    1.093540   0.000000
    38  H    1.096325   1.769317   0.000000
    39  H    1.095688   1.769947   1.758257   0.000000
    40  C    5.484973   6.472625   4.787439   5.365464   0.000000
    41  H    6.346784   7.366509   5.695631   6.261661   1.099279
    42  H    5.969615   6.903042   5.250629   5.719393   1.093728
    43  H    5.230498   6.142771   4.386380   5.306309   1.092794
    44  C    9.942170  10.667703   9.848252  10.481394   9.041864
    45  H   10.661192  11.380101  10.647741  11.160223   9.881898
    46  H   10.308948  11.089852  10.118736  10.816220   8.808977
    47  H   10.010604  10.655440   9.894429  10.647185   9.436980
    48  H    3.258370   4.097358   3.775224   2.460144   5.092473
                   41         42         43         44         45
    41  H    0.000000
    42  H    1.779021   0.000000
    43  H    1.780192   1.767300   0.000000
    44  C    8.499508  10.105663   8.906961   0.000000
    45  H    9.320731  10.938272   9.817905   1.089664   0.000000
    46  H    8.165106   9.840528   8.689488   1.092839   1.784098
    47  H    8.966797  10.513009   9.182172   1.090255   1.774778
    48  H    5.736065   5.461330   5.500469   9.981262  10.514842
                   46         47         48
    46  H    0.000000
    47  H    1.786250   0.000000
    48  H   10.273960  10.386626   0.000000
 Stoichiometry    C21H25N2(1+)
 Framework group  C1[X(C21H25N2)]
 Deg. of freedom   138
 Full point group                 C1      NOp   1
 Largest Abelian subgroup         C1      NOp   1
 Largest concise Abelian subgroup C1      NOp   1
                         Standard orientation:                         
 ---------------------------------------------------------------------
 Center     Atomic      Atomic             Coordinates (Angstroms)
 Number     Number       Type             X           Y           Z
 ---------------------------------------------------------------------
      1          6           0        0.053197    3.420308   -0.058819
      2          6           0       -1.259341    3.295572   -0.542586
      3          6           0       -1.969902    2.090025   -0.476612
      4          6           0       -1.345093    0.942036    0.080353
      5          6           0       -0.020219    1.057405    0.560861
      6          6           0        0.659518    2.285159    0.490229
      7          1           0       -1.747026    4.165953   -0.973449
      8          1           0        1.671399    2.364585    0.880692
      9          6           0        3.588891   -0.687876   -1.187083
     10          6           0        2.343047   -0.331663   -0.711327
     11          6           0        2.023822   -0.480047    0.658554
     12          6           0        3.036514   -0.996257    1.496366
     13          6           0        4.274494   -1.337992    0.985056
     14          1           0        3.866778   -0.590186   -2.227981
     15          1           0        1.612310    0.080992   -1.394741
     16          1           0        2.856564   -1.124463    2.556896
     17          1           0        5.072081   -1.731049    1.600867
     18          6           0       -2.106916   -0.336572    0.240959
     19          6           0       -2.212419   -1.232255   -0.773374
     20          6           0       -3.544727   -2.732782    0.536925
     21          6           0       -3.507919   -1.910520    1.600340
     22          6           0       -2.840475   -0.551575    1.566944
     23          1           0       -1.729228   -1.056840   -1.729386
     24          1           0       -4.046834   -3.692547    0.564595
     25          1           0       -4.004281   -2.214570    2.515536
     26          1           0       -2.141452   -0.437198    2.414373
     27          7           0        4.546812   -1.185722   -0.345322
     28          7           0       -2.937951   -2.414979   -0.689959
     29          6           0        0.658818   -0.151089    1.191843
     30          1           0        0.716961   -0.044730    2.283131
     31          1           0        0.006217   -1.023913    1.003133
     32          6           0        0.774970    4.747997   -0.117327
     33          1           0        0.772670    5.161306   -1.132898
     34          1           0        0.292910    5.489882    0.531438
     35          1           0        1.816407    4.654290    0.205767
     36          6           0       -3.387910    2.027967   -1.003113
     37          1           0       -3.738712    3.022219   -1.293338
     38          1           0       -3.466850    1.375494   -1.880596
     39          1           0       -4.081778    1.631683   -0.253421
     40          6           0       -2.945033   -3.382514   -1.787644
     41          1           0       -2.190311   -4.170645   -1.654755
     42          1           0       -3.928764   -3.854744   -1.861888
     43          1           0       -2.748645   -2.867277   -2.731128
     44          6           0        5.871813   -1.590240   -0.889706
     45          1           0        6.615732   -1.544587   -0.094805
     46          1           0        5.815317   -2.608520   -1.282402
     47          1           0        6.159740   -0.902746   -1.685386
     48          1           0       -3.584002    0.252000    1.721674
 ---------------------------------------------------------------------
 Rotational constants (GHZ):           0.2979700           0.1751614           0.1272338
 Standard basis: 6-31G (6D, 7F)
 There are   257 symmetry adapted cartesian basis functions of A   symmetry.
 There are   257 symmetry adapted basis functions of A   symmetry.
   257 basis functions,   606 primitive gaussians,   257 cartesian basis functions
    82 alpha electrons       82 beta electrons
       nuclear repulsion energy      1837.9556024776 Hartrees.
 NAtoms=   48 NActive=   48 NUniq=   48 SFac= 1.00D+00 NAtFMM=   60 NAOKFM=F Big=F
 Integral buffers will be    131072 words long.
 Regular integral format.
 Two-electron integral symmetry is turned on.
 One-electron integrals computed using PRISM.
 NBasis=   257 RedAO= T EigKep=  4.33D-04  NBF=   257
 NBsUse=   257 1.00D-06 EigRej= -1.00D+00 NBFU=   257
 ExpMin= 1.61D-01 ExpMax= 4.17D+03 ExpMxC= 6.27D+02 IAcc=3 IRadAn=         5 AccDes= 0.00D+00
 Harris functional with IExCor=  402 and IRadAn=       5 diagonalized for initial guess.
 HarFok:  IExCor=  402 AccDes= 0.00D+00 IRadAn=         5 IDoV= 1 UseB2=F ITyADJ=14
 ICtDFT=  3500011 ScaDFX=  1.000000  1.000000  1.000000  1.000000
 FoFCou: FMM=F IPFlag=           0 FMFlag=      100000 FMFlg1=           0
         NFxFlg=           0 DoJE=T BraDBF=F KetDBF=T FulRan=T
         wScrn=  0.000000 ICntrl=       500 IOpCl=  0 I1Cent=   200000004 NGrid=           0
         NMat0=    1 NMatS0=      1 NMatT0=    0 NMatD0=    1 NMtDS0=    0 NMtDT0=    0
 Petite list used in FoFCou.
 Requested convergence on RMS density matrix=1.00D-08 within 128 cycles.
 Requested convergence on MAX density matrix=1.00D-06.
 Requested convergence on             energy=1.00D-06.
 No special actions if energy rises.
 Integral accuracy reduced to 1.0D-05 until final iterations.
 Initial convergence to 1.0D-05 achieved.  Increase integral accuracy.
 SCF Done:  E(RB3LYP) =  -924.333878843     A.U. after   19 cycles
            NFock= 19  Conv=0.83D-08     -V/T= 2.0058
 DoSCS=F DFT=T ScalE2(SS,OS)=  1.000000  1.000000
 ExpMin= 1.61D-01 ExpMax= 4.17D+03 ExpMxC= 6.27D+02 IAcc=3 IRadAn=         5 AccDes= 0.00D+00
 HarFok:  IExCor=  205 AccDes= 0.00D+00 IRadAn=         5 IDoV=-2 UseB2=F ITyADJ=14
 ICtDFT= 12500011 ScaDFX=  1.000000  1.000000  1.000000  1.000000
 GSVD:  LWork=        -713 too small for GESVD, short by        2990 words or        2990 for optimal perf.
 Range of M.O.s used for correlation:    24   257
 NBasis=   257 NAE=    82 NBE=    82 NFC=    23 NFV=     0
 NROrb=    234 NOA=    59 NOB=    59 NVA=   175 NVB=   175

 **** Warning!!: The largest alpha MO coefficient is  0.14395905D+02


 **** Warning!!: The smallest alpha delta epsilon is  0.43323149D-01

 Keep R1, R2, and R3 ints in memory in canonical form, NReq=1774770787.
 Orbital symmetries:
       Occupied  (A) (A) (A) (A) (A) (A) (A) (A) (A) (A) (A) (A)
                 (A) (A) (A) (A) (A) (A) (A) (A) (A) (A) (A) (A)
                 (A) (A) (A) (A) (A) (A) (A) (A) (A) (A) (A) (A)
                 (A) (A) (A) (A) (A) (A) (A) (A) (A) (A) (A) (A)
                 (A) (A) (A) (A) (A) (A) (A) (A) (A) (A) (A) (A)
                 (A) (A) (A) (A) (A) (A) (A) (A) (A) (A) (A) (A)
                 (A) (A) (A) (A) (A) (A) (A) (A) (A) (A)
       Virtual   (A) (A) (A) (A) (A) (A) (A) (A) (A) (A) (A) (A)
                 (A) (A) (A) (A) (A) (A) (A) (A) (A) (A) (A) (A)
                 (A) (A) (A) (A) (A) (A) (A) (A) (A) (A) (A) (A)
                 (A) (A) (A) (A) (A) (A) (A) (A) (A) (A) (A) (A)
                 (A) (A) (A) (A) (A) (A) (A) (A) (A) (A) (A) (A)
                 (A) (A) (A) (A) (A) (A) (A) (A) (A) (A) (A) (A)
                 (A) (A) (A) (A) (A) (A) (A) (A) (A) (A) (A) (A)
                 (A) (A) (A) (A) (A) (A) (A) (A) (A) (A) (A) (A)
                 (A) (A) (A) (A) (A) (A) (A) (A) (A) (A) (A) (A)
                 (A) (A) (A) (A) (A) (A) (A) (A) (A) (A) (A) (A)
                 (A) (A) (A) (A) (A) (A) (A) (A) (A) (A) (A) (A)
                 (A) (A) (A) (A) (A) (A) (A) (A) (A) (A) (A) (A)
                 (A) (A) (A) (A) (A) (A) (A) (A) (A) (A) (A) (A)
                 (A) (A) (A) (A) (A) (A) (A) (A) (A) (A) (A) (A)
                 (A) (A) (A) (A) (A) (A) (A)
    24 initial guesses have been made.
 Convergence on wavefunction:    0.001000000000000
 Iteration     1 Dimension    24 NMult     0 NNew     24
 CISAX will form    24 AO SS matrices at one time.
 New state      1 was old state      2
 New state      2 was old state      1
 New state      3 was old state      4
 New state      4 was old state      3
 New state      5 was old state      6
 New state      6 was old state      5
 New state      7 was old state      8
 New state      8 was old state      7
 New state      9 was old state     10
 New state     10 was old state      9
 New state     11 was old state     22
 Iteration     2 Dimension    36 NMult    24 NNew     12
 Iteration     3 Dimension    48 NMult    36 NNew     12
 Iteration     4 Dimension    60 NMult    48 NNew     12
 Iteration     5 Dimension    66 NMult    60 NNew      6
 ***********************************************************************
 Excited states from <AA,BB:AA,BB> singles matrix:
 ***********************************************************************
 
 Ground to excited state transition densities written to RWF  633
 Ground to excited state transition electric dipole moments (Au):
       state          X           Y           Z        Dip. S.      Osc.
         1        -0.0000     -0.0000      0.0000      0.0000      0.0000
         2         1.7446      0.1606     -0.0503      3.0721      0.0707
         3        -0.0000     -0.0000      0.0000      0.0000      0.0000
         4         0.1897      0.0155      0.0145      0.0364      0.0015
         5        -0.0000      0.0000      0.0000      0.0000      0.0000
         6         0.0781      0.0958     -0.0006      0.0153      0.0009
 Ground to excited state transition velocity dipole moments (Au):
       state          X           Y           Z        Dip. S.      Osc.
         1        -0.0000     -0.0000     -0.0000      0.0000      0.0000
         2        -0.0526     -0.0053      0.0020      0.0028      0.0541
         3        -0.0000      0.0000     -0.0000      0.0000      0.0000
         4        -0.0078      0.0010     -0.0031      0.0001      0.0008
         5         0.0000      0.0000      0.0000      0.0000      0.0000
         6        -0.0085     -0.0076      0.0009      0.0001      0.0010
 Ground to excited state transition magnetic dipole moments (Au):
       state          X           Y           Z
         1         0.0000      0.0000      0.0000
         2        -0.0122     -0.0813     -0.0850
         3         0.0000      0.0000     -0.0000
         4        -0.0840     -0.2451     -0.0658
         5        -0.0000     -0.0000     -0.0000
         6        -0.0238      0.0607      0.0343
 Ground to excited state transition velocity quadrupole moments (Au):
       state          XX          YY          ZZ          XY          XZ          YZ
         1         0.0000      0.0000      0.0000      0.0000     -0.0000      0.0000
         2        -0.1115      0.0780      0.0146      0.1615     -0.0127      0.0096
         3        -0.0000      0.0000     -0.0000     -0.0000     -0.0000      0.0000
         4        -0.0198     -0.0032      0.0111      0.0277     -0.0370      0.0108
         5         0.0000     -0.0000     -0.0000     -0.0000      0.0000     -0.0000
         6         0.0041     -0.0415      0.0101      0.0236     -0.0155      0.0003
 <0|del|b> * <b|rxdel|0> + <0|del|b> * <b|delr+rdel|0>
 Rotatory Strengths (R) in cgs (10**-40 erg-esu-cm/Gauss)
       state          XX          YY          ZZ    R(velocity)    E-M Angle
         1        -0.0000     -0.0000      0.0000     -0.0000       90.00
         2         5.2890     -3.5971     16.8593      6.1837       81.68
         3         0.0000     -0.0000      0.0000      0.0000       90.00
         4        -0.5670      4.9600      2.5753      2.3228       74.49
         5        -0.0000      0.0000      0.0000     -0.0000       90.00
         6        -2.1418      0.8536     -0.5683     -0.6188      105.70
 1/2[<0|r|b>*<b|rxdel|0> + (<0|rxdel|b>*<b|r|0>)*]
 Rotatory Strengths (R) in cgs (10**-40 erg-esu-cm/Gauss)
       state          XX          YY          ZZ     R(length)
         1         0.0000      0.0000     -0.0000      0.0000
         2        15.0748      9.2301     -3.0213      7.0945
         3         0.0000      0.0000      0.0000      0.0000
         4        11.2702      2.6901      0.6769      4.8791
         5        -0.0000      0.0000      0.0000     -0.0000
         6         1.3161     -4.1111      0.0147     -0.9268
  1/2[<0|del|b>*<b|r|0> + (<0|r|b>*<b|del|0>)*] (Au)
       state          X           Y           Z        Dip. S.   Osc.(frdel)
         1         0.0000      0.0000     -0.0000     -0.0000     -0.0000
         2        -0.0918     -0.0009     -0.0001      0.0928      0.0618
         3         0.0000     -0.0000     -0.0000      0.0000      0.0000
         4        -0.0015      0.0000     -0.0000      0.0015      0.0010
         5        -0.0000      0.0000      0.0000      0.0000      0.0000
         6        -0.0007     -0.0007     -0.0000      0.0014      0.0009

 Excitation energies and oscillator strengths:
 
 Excited State   1:      Triplet-A      0.5782 eV 2144.30 nm  f=0.0000  <S**2>=2.000
      82 -> 83         0.70949
 This state for optimization and/or second-order correction.
 Total Energy, E(TD-HF/TD-DFT) =  -924.312630278    
 Copying the excited state density for this state as the 1-particle RhoCI density.
 
 Excited State   2:      Singlet-A      0.9395 eV 1319.66 nm  f=0.0707  <S**2>=0.000
      82 -> 83         0.71387
      82 <- 83        -0.10552
 
 Excited State   3:      Triplet-A      1.6349 eV  758.37 nm  f=0.0000  <S**2>=2.000
      82 -> 84         0.70632
 
 Excited State   4:      Singlet-A      1.6661 eV  744.17 nm  f=0.0015  <S**2>=0.000
      82 -> 84         0.70653
 
 Excited State   5:      Triplet-A      2.3483 eV  527.98 nm  f=0.0000  <S**2>=2.000
      81 -> 83         0.70540
 
 Excited State   6:      Singlet-A      2.3636 eV  524.55 nm  f=0.0009  <S**2>=0.000
      81 -> 83         0.70643
 SavETr:  write IOETrn=   770 NScale= 10 NData=  16 NLR=1 NState=    6 LETran=     118.

 **********************************************************************

            Population analysis using the SCF Density.

 **********************************************************************

 Orbital symmetries:
       Occupied  (A) (A) (A) (A) (A) (A) (A) (A) (A) (A) (A) (A)
                 (A) (A) (A) (A) (A) (A) (A) (A) (A) (A) (A) (A)
                 (A) (A) (A) (A) (A) (A) (A) (A) (A) (A) (A) (A)
                 (A) (A) (A) (A) (A) (A) (A) (A) (A) (A) (A) (A)
                 (A) (A) (A) (A) (A) (A) (A) (A) (A) (A) (A) (A)
                 (A) (A) (A) (A) (A) (A) (A) (A) (A) (A) (A) (A)
                 (A) (A) (A) (A) (A) (A) (A) (A) (A) (A)
       Virtual   (A) (A) (A) (A) (A) (A) (A) (A) (A) (A) (A) (A)
                 (A) (A) (A) (A) (A) (A) (A) (A) (A) (A) (A) (A)
                 (A) (A) (A) (A) (A) (A) (A) (A) (A) (A) (A) (A)
                 (A) (A) (A) (A) (A) (A) (A) (A) (A) (A) (A) (A)
                 (A) (A) (A) (A) (A) (A) (A) (A) (A) (A) (A) (A)
                 (A) (A) (A) (A) (A) (A) (A) (A) (A) (A) (A) (A)
                 (A) (A) (A) (A) (A) (A) (A) (A) (A) (A) (A) (A)
                 (A) (A) (A) (A) (A) (A) (A) (A) (A) (A) (A) (A)
                 (A) (A) (A) (A) (A) (A) (A) (A) (A) (A) (A) (A)
                 (A) (A) (A) (A) (A) (A) (A) (A) (A) (A) (A) (A)
                 (A) (A) (A) (A) (A) (A) (A) (A) (A) (A) (A) (A)
                 (A) (A) (A) (A) (A) (A) (A) (A) (A) (A) (A) (A)
                 (A) (A) (A) (A) (A) (A) (A) (A) (A) (A) (A) (A)
                 (A) (A) (A) (A) (A) (A) (A) (A) (A) (A) (A) (A)
                 (A) (A) (A) (A) (A) (A) (A)
 The electronic state is 1-A.
 Alpha  occ. eigenvalues --  -14.58966 -14.44782 -10.40956 -10.40815 -10.38052
 Alpha  occ. eigenvalues --  -10.37660 -10.35911 -10.35693 -10.31006 -10.30622
 Alpha  occ. eigenvalues --  -10.30072 -10.29331 -10.29148 -10.28066 -10.28058
 Alpha  occ. eigenvalues --  -10.28016 -10.27147 -10.26960 -10.26815 -10.26248
 Alpha  occ. eigenvalues --  -10.25513 -10.25260 -10.24896  -1.17459  -1.04560
 Alpha  occ. eigenvalues --   -1.00296  -0.95658  -0.95151  -0.90933  -0.89656
 Alpha  occ. eigenvalues --   -0.86893  -0.86493  -0.84258  -0.82414  -0.81805
 Alpha  occ. eigenvalues --   -0.79958  -0.77473  -0.76809  -0.76391  -0.71898
 Alpha  occ. eigenvalues --   -0.70487  -0.69677  -0.68006  -0.66255  -0.65432
 Alpha  occ. eigenvalues --   -0.63738  -0.63394  -0.61560  -0.60766  -0.60188
 Alpha  occ. eigenvalues --   -0.58542  -0.57828  -0.57029  -0.56421  -0.55070
 Alpha  occ. eigenvalues --   -0.54613  -0.53938  -0.53724  -0.52765  -0.51653
 Alpha  occ. eigenvalues --   -0.51397  -0.51158  -0.50219  -0.49781  -0.49453
 Alpha  occ. eigenvalues --   -0.49269  -0.48774  -0.48383  -0.47283  -0.45439
 Alpha  occ. eigenvalues --   -0.44830  -0.44439  -0.43837  -0.43319  -0.42616
 Alpha  occ. eigenvalues --   -0.42131  -0.41958  -0.40501  -0.34375  -0.32771
 Alpha  occ. eigenvalues --   -0.31983  -0.25496
 Alpha virt. eigenvalues --   -0.21164  -0.17608  -0.09477  -0.08372  -0.07221
 Alpha virt. eigenvalues --   -0.06405  -0.04076  -0.02716  -0.02381  -0.01567
 Alpha virt. eigenvalues --   -0.00561  -0.00173   0.01048   0.02065   0.02188
 Alpha virt. eigenvalues --    0.02453   0.02818   0.03623   0.04500   0.04548
 Alpha virt. eigenvalues --    0.04914   0.05228   0.05637   0.05931   0.06247
 Alpha virt. eigenvalues --    0.07932   0.08460   0.09123   0.09608   0.09829
 Alpha virt. eigenvalues --    0.10352   0.10639   0.10677   0.11480   0.12278
 Alpha virt. eigenvalues --    0.12607   0.13687   0.14418   0.16423   0.16728
 Alpha virt. eigenvalues --    0.17268   0.17840   0.18167   0.19865   0.20219
 Alpha virt. eigenvalues --    0.20683   0.24475   0.25757   0.26300   0.28173
 Alpha virt. eigenvalues --    0.29331   0.29753   0.30661   0.31050   0.33461
 Alpha virt. eigenvalues --    0.33811   0.35186   0.36209   0.37493   0.37726
 Alpha virt. eigenvalues --    0.40748   0.40859   0.42070   0.42339   0.43484
 Alpha virt. eigenvalues --    0.44189   0.44289   0.45200   0.46414   0.46612
 Alpha virt. eigenvalues --    0.47050   0.48135   0.48482   0.48939   0.49643
 Alpha virt. eigenvalues --    0.49766   0.50028   0.50670   0.51033   0.51596
 Alpha virt. eigenvalues --    0.52676   0.53299   0.54470   0.55175   0.55342
 Alpha virt. eigenvalues --    0.55852   0.56040   0.56581   0.57781   0.58836
 Alpha virt. eigenvalues --    0.60057   0.61240   0.62347   0.64035   0.64177
 Alpha virt. eigenvalues --    0.64557   0.65673   0.66189   0.66635   0.68254
 Alpha virt. eigenvalues --    0.68294   0.68636   0.69193   0.69358   0.69826
 Alpha virt. eigenvalues --    0.70195   0.70800   0.72266   0.72904   0.73562
 Alpha virt. eigenvalues --    0.76016   0.77361   0.77752   0.78712   0.79052
 Alpha virt. eigenvalues --    0.79386   0.79465   0.79947   0.80831   0.81268
 Alpha virt. eigenvalues --    0.82498   0.82825   0.83648   0.85657   0.86082
 Alpha virt. eigenvalues --    0.86229   0.87089   0.87551   0.88663   0.88837
 Alpha virt. eigenvalues --    0.89238   0.89593   0.89821   0.90368   0.90508
 Alpha virt. eigenvalues --    0.91186   0.93018   0.93670   0.95045   0.97036
 Alpha virt. eigenvalues --    0.98537   1.00353   1.01712   1.02225   1.03393
 Alpha virt. eigenvalues --    1.04097   1.05458   1.06457   1.09181   1.09496
 Alpha virt. eigenvalues --    1.10849   1.14156   1.15104   1.16219   1.17636
 Alpha virt. eigenvalues --    1.18135   1.22333   1.24196   1.26670   1.29796
 Alpha virt. eigenvalues --    1.30556   1.35611   1.38261   1.38882   1.40018
 Alpha virt. eigenvalues --    1.41929   1.44374   1.46647   1.48766   1.54058
 Alpha virt. eigenvalues --    1.55839   1.66399   1.73090   1.82928   1.86534
          Condensed to atoms (all electrons):
               1          2          3          4          5          6
     1  C    4.781652   0.504881  -0.036902  -0.027188  -0.034794   0.537766
     2  C    0.504881   5.072916   0.500584  -0.048400  -0.048022  -0.057194
     3  C   -0.036902   0.500584   4.898730   0.484417  -0.043561  -0.044252
     4  C   -0.027188  -0.048400   0.484417   5.049993   0.492294  -0.056564
     5  C   -0.034794  -0.048022  -0.043561   0.492294   5.038471   0.445456
     6  C    0.537766  -0.057194  -0.044252  -0.056564   0.445456   5.124817
     7  H   -0.042100   0.350030  -0.030796   0.004427   0.000775   0.004915
     8  H   -0.028635   0.005246   0.000730   0.003556  -0.043885   0.343163
     9  C   -0.000010  -0.000000   0.000000   0.000021   0.000336  -0.000152
    10  C   -0.000160  -0.000002  -0.000013   0.001313  -0.003717  -0.004262
    11  C    0.000190   0.000007  -0.000173   0.000367  -0.040924  -0.002731
    12  C   -0.000001   0.000000  -0.000000  -0.000225   0.003536   0.000923
    13  C    0.000000  -0.000000  -0.000000   0.000003  -0.000233  -0.000017
    14  H   -0.000000  -0.000000  -0.000000  -0.000000   0.000012   0.000003
    15  H   -0.000183  -0.000054   0.000021   0.001131   0.009902   0.003029
    16  H   -0.000000   0.000000  -0.000000  -0.000001   0.000223  -0.000017
    17  H   -0.000000   0.000000   0.000000  -0.000000   0.000001  -0.000000
    18  C   -0.000084   0.008145  -0.064888   0.339907  -0.074983   0.008904
    19  C    0.000032  -0.000039  -0.005568  -0.014929  -0.003019  -0.000106
    20  C    0.000000   0.000000   0.000002   0.000797   0.000022   0.000000
    21  C    0.000000   0.000000   0.000079   0.006258   0.000137   0.000001
    22  C    0.000005  -0.000001  -0.000663  -0.045638  -0.003200  -0.000041
    23  H   -0.000009  -0.000036   0.001078  -0.001948   0.000535  -0.000026
    24  H   -0.000000   0.000000   0.000000  -0.000010   0.000000   0.000000
    25  H   -0.000000  -0.000000   0.000000  -0.000182  -0.000000  -0.000000
    26  H   -0.000005   0.000038  -0.000860  -0.001824   0.002407  -0.000275
    27  N    0.000000   0.000000   0.000000  -0.000000  -0.000005  -0.000001
    28  N   -0.000000   0.000001   0.000145   0.003037   0.000112   0.000001
    29  C    0.005585   0.000769   0.006233  -0.032042   0.273280  -0.065212
    30  H    0.000042   0.000016  -0.000172  -0.000334  -0.033340  -0.002881
    31  H   -0.000151  -0.000036   0.001022  -0.009186  -0.037516   0.005549
    32  C    0.307830  -0.047057   0.004733   0.001112   0.006041  -0.037706
    33  H   -0.032506  -0.003149   0.000148  -0.000003  -0.000193   0.000705
    34  H   -0.031662  -0.003213   0.000001   0.000021  -0.000205  -0.000227
    35  H   -0.036483   0.003471  -0.000191  -0.000012   0.000438  -0.002653
    36  C    0.005705  -0.045032   0.316273  -0.051883   0.006442   0.000776
    37  H    0.000505  -0.001802  -0.035685   0.004370  -0.000159  -0.000019
    38  H   -0.000216  -0.000450  -0.031935  -0.003508   0.000029   0.000013
    39  H   -0.000208   0.001026  -0.029248  -0.007008   0.000013   0.000018
    40  C    0.000000  -0.000000  -0.000001  -0.000053  -0.000002  -0.000000
    41  H   -0.000000  -0.000000   0.000000   0.000001  -0.000001   0.000000
    42  H   -0.000000   0.000000  -0.000000   0.000002   0.000000  -0.000000
    43  H    0.000000   0.000000  -0.000004   0.000001   0.000001  -0.000000
    44  C    0.000000  -0.000000  -0.000000   0.000000   0.000000   0.000000
    45  H   -0.000000   0.000000  -0.000000  -0.000000  -0.000000  -0.000000
    46  H    0.000000  -0.000000   0.000000   0.000000   0.000000   0.000000
    47  H   -0.000000   0.000000  -0.000000  -0.000000  -0.000000  -0.000000
    48  H   -0.000015  -0.000108   0.003305  -0.003134  -0.000263   0.000067
               7          8          9         10         11         12
     1  C   -0.042100  -0.028635  -0.000010  -0.000160   0.000190  -0.000001
     2  C    0.350030   0.005246  -0.000000  -0.000002   0.000007   0.000000
     3  C   -0.030796   0.000730   0.000000  -0.000013  -0.000173  -0.000000
     4  C    0.004427   0.003556   0.000021   0.001313   0.000367  -0.000225
     5  C    0.000775  -0.043885   0.000336  -0.003717  -0.040924   0.003536
     6  C    0.004915   0.343163  -0.000152  -0.004262  -0.002731   0.000923
     7  H    0.576760  -0.000205   0.000000  -0.000000   0.000000   0.000000
     8  H   -0.000205   0.610330  -0.000038   0.001578   0.002663  -0.000043
     9  C    0.000000  -0.000038   4.843653   0.516643  -0.036409  -0.024233
    10  C   -0.000000   0.001578   0.516643   4.987937   0.479727  -0.071963
    11  C    0.000000   0.002663  -0.036409   0.479727   4.905468   0.464540
    12  C    0.000000  -0.000043  -0.024233  -0.071963   0.464540   5.009988
    13  C   -0.000000   0.000039  -0.059036  -0.023861  -0.034614   0.512434
    14  H   -0.000000  -0.000001   0.369343  -0.014806   0.002757   0.000432
    15  H    0.000000  -0.000028  -0.031013   0.357580  -0.025939   0.005187
    16  H    0.000000   0.000005   0.000206   0.005056  -0.028674   0.362601
    17  H    0.000000  -0.000000   0.002723   0.000333   0.002683  -0.014142
    18  C   -0.000197  -0.000193   0.000004   0.000227  -0.001131  -0.000005
    19  C   -0.000004  -0.000001   0.000006   0.000234  -0.000368  -0.000001
    20  C   -0.000000  -0.000000   0.000000   0.000000  -0.000004   0.000000
    21  C   -0.000000  -0.000000   0.000000   0.000000  -0.000008   0.000000
    22  C    0.000002   0.000001  -0.000000  -0.000001   0.000154   0.000001
    23  H    0.000001   0.000000   0.000002   0.000012  -0.000040   0.000001
    24  H   -0.000000  -0.000000  -0.000000  -0.000000  -0.000000  -0.000000
    25  H    0.000000   0.000000   0.000000   0.000000  -0.000000   0.000000
    26  H   -0.000000   0.000003  -0.000000  -0.000006   0.000182  -0.000001
    27  N    0.000000  -0.000011   0.282713  -0.036024  -0.037355  -0.037470
    28  N   -0.000000  -0.000000  -0.000000  -0.000005   0.000021  -0.000000
    29  C    0.000011  -0.007338   0.006051  -0.052084   0.278620  -0.030596
    30  H   -0.000000   0.000745  -0.000207   0.005823  -0.046510  -0.005262
    31  H    0.000000   0.000104  -0.000076  -0.004055  -0.038868  -0.000350
    32  C   -0.004557  -0.006818   0.000000   0.000007  -0.000004  -0.000000
    33  H    0.001832   0.000075   0.000000  -0.000000  -0.000000  -0.000000
    34  H    0.001195   0.000129  -0.000000  -0.000000   0.000000   0.000000
    35  H    0.000050   0.005660  -0.000000  -0.000001  -0.000003  -0.000000
    36  C   -0.006384   0.000010  -0.000000  -0.000000   0.000002  -0.000000
    37  H    0.005416  -0.000000  -0.000000  -0.000000  -0.000000   0.000000
    38  H    0.000195  -0.000000   0.000000   0.000000  -0.000000   0.000000
    39  H    0.000153  -0.000000  -0.000000   0.000000  -0.000000  -0.000000
    40  C    0.000000   0.000000  -0.000000   0.000000   0.000000  -0.000000
    41  H    0.000000  -0.000000   0.000000   0.000001  -0.000002   0.000000
    42  H   -0.000000  -0.000000  -0.000000  -0.000000   0.000000  -0.000000
    43  H   -0.000000   0.000000  -0.000000  -0.000000   0.000000  -0.000000
    44  C   -0.000000  -0.000000  -0.028361   0.002767   0.000239   0.003151
    45  H   -0.000000   0.000000   0.002133  -0.000200  -0.000014   0.000647
    46  H    0.000000  -0.000000  -0.001470  -0.000146   0.000042  -0.000196
    47  H   -0.000000   0.000000  -0.000627   0.000541  -0.000004  -0.000207
    48  H    0.000003  -0.000000   0.000000   0.000000  -0.000006  -0.000000
              13         14         15         16         17         18
     1  C    0.000000  -0.000000  -0.000183  -0.000000  -0.000000  -0.000084
     2  C   -0.000000  -0.000000  -0.000054   0.000000   0.000000   0.008145
     3  C   -0.000000  -0.000000   0.000021  -0.000000   0.000000  -0.064888
     4  C    0.000003  -0.000000   0.001131  -0.000001  -0.000000   0.339907
     5  C   -0.000233   0.000012   0.009902   0.000223   0.000001  -0.074983
     6  C   -0.000017   0.000003   0.003029  -0.000017  -0.000000   0.008904
     7  H   -0.000000  -0.000000   0.000000   0.000000   0.000000  -0.000197
     8  H    0.000039  -0.000001  -0.000028   0.000005  -0.000000  -0.000193
     9  C   -0.059036   0.369343  -0.031013   0.000206   0.002723   0.000004
    10  C   -0.023861  -0.014806   0.357580   0.005056   0.000333   0.000227
    11  C   -0.034614   0.002757  -0.025939  -0.028674   0.002683  -0.001131
    12  C    0.512434   0.000432   0.005187   0.362601  -0.014142  -0.000005
    13  C    4.831697   0.002653   0.000159  -0.031624   0.368453   0.000001
    14  H    0.002653   0.472386  -0.002133   0.000009  -0.000139  -0.000000
    15  H    0.000159  -0.002133   0.477470  -0.000105   0.000008  -0.000025
    16  H   -0.031624   0.000009  -0.000105   0.490880  -0.002389  -0.000000
    17  H    0.368453  -0.000139   0.000008  -0.002389   0.470787   0.000000
    18  C    0.000001  -0.000000  -0.000025  -0.000000   0.000000   5.068397
    19  C    0.000000  -0.000000   0.000103  -0.000000  -0.000000   0.594918
    20  C    0.000000   0.000000   0.000000  -0.000000  -0.000000  -0.004506
    21  C    0.000000  -0.000000  -0.000000  -0.000000  -0.000000  -0.014085
    22  C   -0.000000   0.000000   0.000005   0.000000  -0.000000   0.330638
    23  H   -0.000000  -0.000000   0.000321   0.000000   0.000000  -0.042420
    24  H    0.000000   0.000000  -0.000000  -0.000000   0.000000  -0.000385
    25  H   -0.000000  -0.000000   0.000000   0.000000   0.000000   0.002982
    26  H   -0.000000   0.000000   0.000000   0.000002   0.000000  -0.047414
    27  N    0.289565  -0.049750   0.003647   0.003864  -0.048769  -0.000000
    28  N   -0.000000   0.000000   0.000000   0.000000   0.000000  -0.038663
    29  C    0.005113  -0.000121  -0.008049  -0.004799  -0.000104  -0.023565
    30  H    0.000511   0.000002   0.000262   0.004592  -0.000001   0.000563
    31  H   -0.000234   0.000002   0.000256   0.000098   0.000002   0.035664
    32  C    0.000000   0.000000  -0.000002   0.000000  -0.000000   0.000004
    33  H   -0.000000  -0.000000   0.000000  -0.000000   0.000000  -0.000000
    34  H   -0.000000  -0.000000  -0.000000   0.000000  -0.000000   0.000000
    35  H    0.000000  -0.000000   0.000000   0.000000   0.000000  -0.000000
    36  C    0.000000  -0.000000  -0.000002  -0.000000  -0.000000  -0.007199
    37  H   -0.000000   0.000000   0.000000   0.000000   0.000000   0.000617
    38  H   -0.000000   0.000000   0.000000   0.000000   0.000000   0.001168
    39  H    0.000000  -0.000000  -0.000000  -0.000000   0.000000   0.001343
    40  C   -0.000000  -0.000000  -0.000000  -0.000000   0.000000   0.004103
    41  H    0.000000  -0.000000   0.000000  -0.000000  -0.000000  -0.000008
    42  H   -0.000000   0.000000   0.000000   0.000000   0.000000  -0.000202
    43  H   -0.000000   0.000000  -0.000000   0.000000   0.000000   0.000563
    44  C   -0.027825  -0.001698  -0.000081  -0.000090  -0.002501  -0.000000
    45  H    0.000022   0.000104   0.000002   0.000002   0.001985  -0.000000
    46  H   -0.001011   0.000281   0.000002   0.000001   0.000208   0.000000
    47  H    0.001738   0.001508   0.000001   0.000002   0.000105  -0.000000
    48  H    0.000000  -0.000000  -0.000000  -0.000000  -0.000000  -0.048746
              19         20         21         22         23         24
     1  C    0.000032   0.000000   0.000000   0.000005  -0.000009  -0.000000
     2  C   -0.000039   0.000000   0.000000  -0.000001  -0.000036   0.000000
     3  C   -0.005568   0.000002   0.000079  -0.000663   0.001078   0.000000
     4  C   -0.014929   0.000797   0.006258  -0.045638  -0.001948  -0.000010
     5  C   -0.003019   0.000022   0.000137  -0.003200   0.000535   0.000000
     6  C   -0.000106   0.000000   0.000001  -0.000041  -0.000026   0.000000
     7  H   -0.000004  -0.000000  -0.000000   0.000002   0.000001  -0.000000
     8  H   -0.000001  -0.000000  -0.000000   0.000001   0.000000  -0.000000
     9  C    0.000006   0.000000   0.000000  -0.000000   0.000002  -0.000000
    10  C    0.000234   0.000000   0.000000  -0.000001   0.000012  -0.000000
    11  C   -0.000368  -0.000004  -0.000008   0.000154  -0.000040  -0.000000
    12  C   -0.000001   0.000000   0.000000   0.000001   0.000001  -0.000000
    13  C    0.000000   0.000000   0.000000  -0.000000  -0.000000   0.000000
    14  H   -0.000000   0.000000  -0.000000   0.000000  -0.000000   0.000000
    15  H    0.000103   0.000000  -0.000000   0.000005   0.000321  -0.000000
    16  H   -0.000000  -0.000000  -0.000000   0.000000   0.000000  -0.000000
    17  H   -0.000000  -0.000000  -0.000000  -0.000000   0.000000   0.000000
    18  C    0.594918  -0.004506  -0.014085   0.330638  -0.042420  -0.000385
    19  C    4.832448  -0.057349  -0.015694  -0.052269   0.369662   0.004457
    20  C   -0.057349   4.737828   0.665893  -0.047699   0.003894   0.372356
    21  C   -0.015694   0.665893   4.990018   0.315231  -0.000425  -0.028692
    22  C   -0.052269  -0.047699   0.315231   5.135651   0.005273   0.005197
    23  H    0.369662   0.003894  -0.000425   0.005273   0.578242  -0.000159
    24  H    0.004457   0.372356  -0.028692   0.005197  -0.000159   0.555532
    25  H    0.000854  -0.029955   0.361513  -0.035868   0.000009  -0.004894
    26  H    0.001147   0.000814  -0.041746   0.359907  -0.000142  -0.000125
    27  N   -0.000000  -0.000000  -0.000000   0.000000   0.000000   0.000000
    28  N    0.238741   0.253015  -0.050405  -0.029919  -0.054976  -0.057686
    29  C   -0.003215  -0.000024  -0.000368  -0.000279   0.000115  -0.000000
    30  H    0.000083  -0.000004  -0.000074   0.000160   0.000005  -0.000000
    31  H    0.009453   0.000423   0.001375  -0.001708   0.000048   0.000002
    32  C    0.000000   0.000000   0.000000  -0.000000  -0.000000  -0.000000
    33  H    0.000000   0.000000  -0.000000   0.000000   0.000000   0.000000
    34  H    0.000000  -0.000000   0.000000  -0.000000  -0.000000  -0.000000
    35  H   -0.000000  -0.000000  -0.000000   0.000000   0.000000  -0.000000
    36  C    0.002122   0.000042  -0.000003  -0.001452   0.000009   0.000000
    37  H    0.000104  -0.000000   0.000001   0.000015  -0.000001  -0.000000
    38  H    0.001438   0.000001  -0.000003   0.000033   0.000258  -0.000000
    39  H   -0.000119   0.000018  -0.000272   0.001038   0.000046   0.000000
    40  C   -0.030507  -0.031197   0.003519   0.000062  -0.003447  -0.001836
    41  H    0.000712   0.000906   0.000165   0.000007   0.000251   0.000421
    42  H    0.001911  -0.000589   0.000455  -0.000003   0.000097   0.002092
    43  H   -0.000468   0.002521  -0.000231   0.000001   0.003754   0.000096
    44  C   -0.000000  -0.000000  -0.000000   0.000000   0.000000  -0.000000
    45  H   -0.000000  -0.000000  -0.000000   0.000000   0.000000   0.000000
    46  H    0.000000   0.000000   0.000000  -0.000000   0.000000  -0.000000
    47  H   -0.000000  -0.000000  -0.000000   0.000000  -0.000000   0.000000
    48  H   -0.000900  -0.001157  -0.042885   0.371390  -0.000123  -0.000116
              25         26         27         28         29         30
     1  C   -0.000000  -0.000005   0.000000  -0.000000   0.005585   0.000042
     2  C   -0.000000   0.000038   0.000000   0.000001   0.000769   0.000016
     3  C    0.000000  -0.000860   0.000000   0.000145   0.006233  -0.000172
     4  C   -0.000182  -0.001824  -0.000000   0.003037  -0.032042  -0.000334
     5  C   -0.000000   0.002407  -0.000005   0.000112   0.273280  -0.033340
     6  C   -0.000000  -0.000275  -0.000001   0.000001  -0.065212  -0.002881
     7  H    0.000000  -0.000000   0.000000  -0.000000   0.000011  -0.000000
     8  H    0.000000   0.000003  -0.000011  -0.000000  -0.007338   0.000745
     9  C    0.000000  -0.000000   0.282713  -0.000000   0.006051  -0.000207
    10  C    0.000000  -0.000006  -0.036024  -0.000005  -0.052084   0.005823
    11  C   -0.000000   0.000182  -0.037355   0.000021   0.278620  -0.046510
    12  C    0.000000  -0.000001  -0.037470  -0.000000  -0.030596  -0.005262
    13  C   -0.000000  -0.000000   0.289565  -0.000000   0.005113   0.000511
    14  H   -0.000000   0.000000  -0.049750   0.000000  -0.000121   0.000002
    15  H    0.000000   0.000000   0.003647   0.000000  -0.008049   0.000262
    16  H    0.000000   0.000002   0.003864   0.000000  -0.004799   0.004592
    17  H    0.000000   0.000000  -0.048769   0.000000  -0.000104  -0.000001
    18  C    0.002982  -0.047414  -0.000000  -0.038663  -0.023565   0.000563
    19  C    0.000854   0.001147  -0.000000   0.238741  -0.003215   0.000083
    20  C   -0.029955   0.000814  -0.000000   0.253015  -0.000024  -0.000004
    21  C    0.361513  -0.041746  -0.000000  -0.050405  -0.000368  -0.000074
    22  C   -0.035868   0.359907   0.000000  -0.029919  -0.000279   0.000160
    23  H    0.000009  -0.000142   0.000000  -0.054976   0.000115   0.000005
    24  H   -0.004894  -0.000125   0.000000  -0.057686  -0.000000  -0.000000
    25  H    0.569057  -0.001306  -0.000000   0.004328  -0.000003   0.000001
    26  H   -0.001306   0.652396   0.000000   0.001030   0.004740   0.000734
    27  N   -0.000000   0.000000   7.127856   0.000000   0.000231  -0.000002
    28  N    0.004328   0.001030   0.000000   7.230898   0.000078   0.000004
    29  C   -0.000003   0.004740   0.000231   0.000078   5.358700   0.366767
    30  H    0.000001   0.000734  -0.000002   0.000004   0.366767   0.555071
    31  H   -0.000004  -0.005481   0.000009  -0.001474   0.334416  -0.027558
    32  C   -0.000000   0.000000  -0.000000  -0.000000  -0.000224   0.000001
    33  H    0.000000  -0.000000   0.000000   0.000000   0.000004   0.000000
    34  H   -0.000000   0.000000   0.000000  -0.000000   0.000002  -0.000000
    35  H    0.000000  -0.000000   0.000000   0.000000   0.000002   0.000001
    36  C   -0.000001   0.000147   0.000000  -0.000225  -0.000181   0.000003
    37  H    0.000000   0.000002  -0.000000  -0.000001   0.000002  -0.000000
    38  H   -0.000000   0.000000  -0.000000  -0.000077  -0.000000   0.000000
    39  H    0.000001  -0.000077   0.000000   0.000050   0.000005  -0.000000
    40  C   -0.000129   0.000011   0.000000   0.243986   0.000003  -0.000000
    41  H    0.000001  -0.000005  -0.000000  -0.055402  -0.000004  -0.000000
    42  H   -0.000000   0.000001   0.000000  -0.043231   0.000000   0.000000
    43  H    0.000003   0.000001   0.000000  -0.040667   0.000001  -0.000000
    44  C    0.000000   0.000000   0.178534   0.000000   0.000005   0.000000
    45  H   -0.000000   0.000000  -0.034780   0.000000  -0.000000   0.000000
    46  H    0.000000  -0.000000  -0.039119  -0.000000   0.000000   0.000000
    47  H   -0.000000   0.000000  -0.035580   0.000000  -0.000000  -0.000000
    48  H   -0.000438  -0.056789  -0.000000   0.001300  -0.000251  -0.000006
              31         32         33         34         35         36
     1  C   -0.000151   0.307830  -0.032506  -0.031662  -0.036483   0.005705
     2  C   -0.000036  -0.047057  -0.003149  -0.003213   0.003471  -0.045032
     3  C    0.001022   0.004733   0.000148   0.000001  -0.000191   0.316273
     4  C   -0.009186   0.001112  -0.000003   0.000021  -0.000012  -0.051883
     5  C   -0.037516   0.006041  -0.000193  -0.000205   0.000438   0.006442
     6  C    0.005549  -0.037706   0.000705  -0.000227  -0.002653   0.000776
     7  H    0.000000  -0.004557   0.001832   0.001195   0.000050  -0.006384
     8  H    0.000104  -0.006818   0.000075   0.000129   0.005660   0.000010
     9  C   -0.000076   0.000000   0.000000  -0.000000  -0.000000  -0.000000
    10  C   -0.004055   0.000007  -0.000000  -0.000000  -0.000001  -0.000000
    11  C   -0.038868  -0.000004  -0.000000   0.000000  -0.000003   0.000002
    12  C   -0.000350  -0.000000  -0.000000   0.000000  -0.000000  -0.000000
    13  C   -0.000234   0.000000  -0.000000  -0.000000   0.000000   0.000000
    14  H    0.000002   0.000000  -0.000000  -0.000000  -0.000000  -0.000000
    15  H    0.000256  -0.000002   0.000000  -0.000000   0.000000  -0.000002
    16  H    0.000098   0.000000  -0.000000   0.000000   0.000000  -0.000000
    17  H    0.000002  -0.000000   0.000000  -0.000000   0.000000  -0.000000
    18  C    0.035664   0.000004  -0.000000   0.000000  -0.000000  -0.007199
    19  C    0.009453   0.000000   0.000000   0.000000  -0.000000   0.002122
    20  C    0.000423   0.000000   0.000000  -0.000000  -0.000000   0.000042
    21  C    0.001375   0.000000  -0.000000   0.000000  -0.000000  -0.000003
    22  C   -0.001708  -0.000000   0.000000  -0.000000   0.000000  -0.001452
    23  H    0.000048  -0.000000   0.000000  -0.000000   0.000000   0.000009
    24  H    0.000002  -0.000000   0.000000  -0.000000  -0.000000   0.000000
    25  H   -0.000004  -0.000000   0.000000  -0.000000   0.000000  -0.000001
    26  H   -0.005481   0.000000  -0.000000   0.000000  -0.000000   0.000147
    27  N    0.000009  -0.000000   0.000000   0.000000   0.000000   0.000000
    28  N   -0.001474  -0.000000   0.000000  -0.000000   0.000000  -0.000225
    29  C    0.334416  -0.000224   0.000004   0.000002   0.000002  -0.000181
    30  H   -0.027558   0.000001   0.000000  -0.000000   0.000001   0.000003
    31  H    0.534189   0.000001  -0.000000  -0.000000   0.000000  -0.000010
    32  C    0.000001   5.154770   0.368656   0.370150   0.366806  -0.000192
    33  H   -0.000000   0.368656   0.561839  -0.030559  -0.029200   0.000001
    34  H   -0.000000   0.370150  -0.030559   0.549358  -0.028524   0.000002
    35  H    0.000000   0.366806  -0.029200  -0.028524   0.578645   0.000002
    36  C   -0.000010  -0.000192   0.000001   0.000002   0.000002   5.155708
    37  H   -0.000000  -0.000001   0.000001  -0.000001   0.000000   0.364468
    38  H   -0.000002   0.000003  -0.000000   0.000000  -0.000000   0.367317
    39  H    0.000004   0.000002   0.000000  -0.000000  -0.000000   0.366646
    40  C   -0.000026  -0.000000  -0.000000   0.000000   0.000000   0.000001
    41  H    0.000045  -0.000000  -0.000000   0.000000   0.000000  -0.000000
    42  H   -0.000001   0.000000   0.000000  -0.000000  -0.000000   0.000000
    43  H   -0.000007   0.000000   0.000000   0.000000  -0.000000   0.000000
    44  C   -0.000000   0.000000  -0.000000  -0.000000   0.000000  -0.000000
    45  H    0.000000   0.000000   0.000000  -0.000000  -0.000000   0.000000
    46  H   -0.000000  -0.000000  -0.000000   0.000000   0.000000  -0.000000
    47  H    0.000000   0.000000   0.000000  -0.000000  -0.000000   0.000000
    48  H    0.000568  -0.000000  -0.000000   0.000000   0.000000  -0.000819
              37         38         39         40         41         42
     1  C    0.000505  -0.000216  -0.000208   0.000000  -0.000000  -0.000000
     2  C   -0.001802  -0.000450   0.001026  -0.000000  -0.000000   0.000000
     3  C   -0.035685  -0.031935  -0.029248  -0.000001   0.000000  -0.000000
     4  C    0.004370  -0.003508  -0.007008  -0.000053   0.000001   0.000002
     5  C   -0.000159   0.000029   0.000013  -0.000002  -0.000001   0.000000
     6  C   -0.000019   0.000013   0.000018  -0.000000   0.000000  -0.000000
     7  H    0.005416   0.000195   0.000153   0.000000   0.000000  -0.000000
     8  H   -0.000000  -0.000000  -0.000000   0.000000  -0.000000  -0.000000
     9  C   -0.000000   0.000000  -0.000000  -0.000000   0.000000  -0.000000
    10  C   -0.000000   0.000000   0.000000   0.000000   0.000001  -0.000000
    11  C   -0.000000  -0.000000  -0.000000   0.000000  -0.000002   0.000000
    12  C    0.000000   0.000000  -0.000000  -0.000000   0.000000  -0.000000
    13  C   -0.000000  -0.000000   0.000000  -0.000000   0.000000  -0.000000
    14  H    0.000000   0.000000  -0.000000  -0.000000  -0.000000   0.000000
    15  H    0.000000   0.000000  -0.000000  -0.000000   0.000000   0.000000
    16  H    0.000000   0.000000  -0.000000  -0.000000  -0.000000   0.000000
    17  H    0.000000   0.000000   0.000000   0.000000  -0.000000   0.000000
    18  C    0.000617   0.001168   0.001343   0.004103  -0.000008  -0.000202
    19  C    0.000104   0.001438  -0.000119  -0.030507   0.000712   0.001911
    20  C   -0.000000   0.000001   0.000018  -0.031197   0.000906  -0.000589
    21  C    0.000001  -0.000003  -0.000272   0.003519   0.000165   0.000455
    22  C    0.000015   0.000033   0.001038   0.000062   0.000007  -0.000003
    23  H   -0.000001   0.000258   0.000046  -0.003447   0.000251   0.000097
    24  H   -0.000000  -0.000000   0.000000  -0.001836   0.000421   0.002092
    25  H    0.000000  -0.000000   0.000001  -0.000129   0.000001  -0.000000
    26  H    0.000002   0.000000  -0.000077   0.000011  -0.000005   0.000001
    27  N   -0.000000  -0.000000   0.000000   0.000000  -0.000000   0.000000
    28  N   -0.000001  -0.000077   0.000050   0.243986  -0.055402  -0.043231
    29  C    0.000002  -0.000000   0.000005   0.000003  -0.000004   0.000000
    30  H   -0.000000   0.000000  -0.000000  -0.000000  -0.000000   0.000000
    31  H   -0.000000  -0.000002   0.000004  -0.000026   0.000045  -0.000001
    32  C   -0.000001   0.000003   0.000002  -0.000000  -0.000000   0.000000
    33  H    0.000001  -0.000000   0.000000  -0.000000  -0.000000   0.000000
    34  H   -0.000001   0.000000  -0.000000   0.000000   0.000000  -0.000000
    35  H    0.000000  -0.000000  -0.000000   0.000000   0.000000  -0.000000
    36  C    0.364468   0.367317   0.366646   0.000001  -0.000000   0.000000
    37  H    0.565559  -0.028646  -0.028122   0.000000  -0.000000   0.000000
    38  H   -0.028646   0.568095  -0.031848   0.000001   0.000000  -0.000001
    39  H   -0.028122  -0.031848   0.556648  -0.000002   0.000000  -0.000000
    40  C    0.000000   0.000001  -0.000002   4.928468   0.373265   0.382656
    41  H   -0.000000   0.000000   0.000000   0.373265   0.600721  -0.041357
    42  H    0.000000  -0.000001  -0.000000   0.382656  -0.041357   0.545718
    43  H    0.000000   0.000005  -0.000000   0.379401  -0.037081  -0.023126
    44  C    0.000000   0.000000  -0.000000  -0.000000  -0.000000   0.000000
    45  H    0.000000  -0.000000  -0.000000   0.000000  -0.000000   0.000000
    46  H   -0.000000   0.000000  -0.000000  -0.000000   0.000000  -0.000000
    47  H    0.000000  -0.000000   0.000000   0.000000  -0.000000   0.000000
    48  H   -0.000107  -0.000039   0.004032  -0.000000   0.000003  -0.000004
              43         44         45         46         47         48
     1  C    0.000000   0.000000  -0.000000   0.000000  -0.000000  -0.000015
     2  C    0.000000  -0.000000   0.000000  -0.000000   0.000000  -0.000108
     3  C   -0.000004  -0.000000  -0.000000   0.000000  -0.000000   0.003305
     4  C    0.000001   0.000000  -0.000000   0.000000  -0.000000  -0.003134
     5  C    0.000001   0.000000  -0.000000   0.000000  -0.000000  -0.000263
     6  C   -0.000000   0.000000  -0.000000   0.000000  -0.000000   0.000067
     7  H   -0.000000  -0.000000  -0.000000   0.000000  -0.000000   0.000003
     8  H    0.000000  -0.000000   0.000000  -0.000000   0.000000  -0.000000
     9  C   -0.000000  -0.028361   0.002133  -0.001470  -0.000627   0.000000
    10  C   -0.000000   0.002767  -0.000200  -0.000146   0.000541   0.000000
    11  C    0.000000   0.000239  -0.000014   0.000042  -0.000004  -0.000006
    12  C   -0.000000   0.003151   0.000647  -0.000196  -0.000207  -0.000000
    13  C   -0.000000  -0.027825   0.000022  -0.001011   0.001738   0.000000
    14  H    0.000000  -0.001698   0.000104   0.000281   0.001508  -0.000000
    15  H   -0.000000  -0.000081   0.000002   0.000002   0.000001  -0.000000
    16  H    0.000000  -0.000090   0.000002   0.000001   0.000002  -0.000000
    17  H    0.000000  -0.002501   0.001985   0.000208   0.000105  -0.000000
    18  C    0.000563  -0.000000  -0.000000   0.000000  -0.000000  -0.048746
    19  C   -0.000468  -0.000000  -0.000000   0.000000  -0.000000  -0.000900
    20  C    0.002521  -0.000000  -0.000000   0.000000  -0.000000  -0.001157
    21  C   -0.000231  -0.000000  -0.000000   0.000000  -0.000000  -0.042885
    22  C    0.000001   0.000000   0.000000  -0.000000   0.000000   0.371390
    23  H    0.003754   0.000000   0.000000   0.000000  -0.000000  -0.000123
    24  H    0.000096  -0.000000   0.000000  -0.000000   0.000000  -0.000116
    25  H    0.000003   0.000000  -0.000000   0.000000  -0.000000  -0.000438
    26  H    0.000001   0.000000   0.000000  -0.000000   0.000000  -0.056789
    27  N    0.000000   0.178534  -0.034780  -0.039119  -0.035580  -0.000000
    28  N   -0.040667   0.000000   0.000000  -0.000000   0.000000   0.001300
    29  C    0.000001   0.000005  -0.000000   0.000000  -0.000000  -0.000251
    30  H   -0.000000   0.000000   0.000000   0.000000  -0.000000  -0.000006
    31  H   -0.000007  -0.000000   0.000000  -0.000000   0.000000   0.000568
    32  C    0.000000   0.000000   0.000000  -0.000000   0.000000  -0.000000
    33  H    0.000000  -0.000000   0.000000  -0.000000   0.000000  -0.000000
    34  H    0.000000  -0.000000  -0.000000   0.000000  -0.000000   0.000000
    35  H   -0.000000   0.000000  -0.000000   0.000000  -0.000000   0.000000
    36  C    0.000000  -0.000000   0.000000  -0.000000   0.000000  -0.000819
    37  H    0.000000   0.000000   0.000000  -0.000000   0.000000  -0.000107
    38  H    0.000005   0.000000  -0.000000   0.000000  -0.000000  -0.000039
    39  H   -0.000000  -0.000000  -0.000000  -0.000000   0.000000   0.004032
    40  C    0.379401  -0.000000   0.000000  -0.000000   0.000000  -0.000000
    41  H   -0.037081  -0.000000  -0.000000   0.000000  -0.000000   0.000003
    42  H   -0.023126   0.000000   0.000000  -0.000000   0.000000  -0.000004
    43  H    0.554657   0.000000   0.000000  -0.000000   0.000000  -0.000002
    44  C    0.000000   5.003087   0.381311   0.381661   0.381286  -0.000000
    45  H    0.000000   0.381311   0.489498  -0.024883  -0.022939  -0.000000
    46  H   -0.000000   0.381661  -0.024883   0.486179  -0.025982   0.000000
    47  H    0.000000   0.381286  -0.022939  -0.025982   0.489620  -0.000000
    48  H   -0.000002  -0.000000  -0.000000   0.000000  -0.000000   0.618366
 Mulliken charges:
               1
     1  C    0.127118
     2  C   -0.192536
     3  C    0.107410
     4  C   -0.088956
     5  C    0.087559
     6  C   -0.201770
     7  H    0.138479
     8  H    0.113160
     9  C    0.157797
    10  C   -0.148471
    11  C    0.156118
    12  C   -0.178745
    13  C    0.166068
    14  H    0.219159
    15  H    0.208530
    16  H    0.200160
    17  H    0.220758
    18  C   -0.029448
    19  C    0.126132
    20  C    0.133952
    21  C   -0.149756
    22  C   -0.306029
    23  H    0.140139
    24  H    0.153750
    25  H    0.134033
    26  H    0.132493
    27  N   -0.567553
    28  N   -0.604016
    29  C   -0.412273
    30  H    0.180965
    31  H    0.203515
    32  C   -0.483556
    33  H    0.162351
    34  H    0.173533
    35  H    0.141993
    36  C   -0.472293
    37  H    0.153485
    38  H    0.158169
    39  H    0.165862
    40  C   -0.248276
    41  H    0.157361
    42  H    0.175583
    43  H    0.160581
    44  C   -0.271484
    45  H    0.207111
    46  H    0.224431
    47  H    0.210538
    48  H    0.156873
 Sum of Mulliken charges =   1.00000
 Mulliken charges with hydrogens summed into heavy atoms:
               1
     1  C    0.127118
     2  C   -0.054057
     3  C    0.107410
     4  C   -0.088956
     5  C    0.087559
     6  C   -0.088610
     9  C    0.376956
    10  C    0.060058
    11  C    0.156118
    12  C    0.021414
    13  C    0.386825
    18  C   -0.029448
    19  C    0.266272
    20  C    0.287702
    21  C   -0.015723
    22  C   -0.016663
    27  N   -0.567553
    28  N   -0.604016
    29  C   -0.027794
    32  C   -0.005679
    36  C    0.005222
    40  C    0.245249
    44  C    0.370595
 Electronic spatial extent (au):  <R**2>=           8828.1225
 Charge=              1.0000 electrons
 Dipole moment (field-independent basis, Debye):
    X=             12.8943    Y=             -5.0031    Z=             -1.8173  Tot=             13.9497
 Quadrupole moment (field-independent basis, Debye-Ang):
   XX=            -43.7388   YY=           -108.9018   ZZ=           -118.4536
   XY=            -14.1169   XZ=             -0.9947   YZ=              1.6891
 Traceless Quadrupole moment (field-independent basis, Debye-Ang):
   XX=             46.6259   YY=            -18.5371   ZZ=            -28.0889
   XY=            -14.1169   XZ=             -0.9947   YZ=              1.6891
 Octapole moment (field-independent basis, Debye-Ang**2):
  XXX=            408.1425  YYY=             -4.2185  ZZZ=             -7.1877  XYY=             -7.3327
  XXY=           -149.1377  XXZ=            -37.8031  XZZ=             31.9004  YZZ=            -28.9811
  YYZ=            -25.5761  XYZ=             -3.0520
 Hexadecapole moment (field-independent basis, Debye-Ang**3):
 XXXX=          -4485.8852 YYYY=          -3508.5666 ZZZZ=           -924.4411 XXXY=           -584.2379
 XXXZ=           -185.5368 YYYX=             75.7093 YYYZ=             33.0986 ZZZX=             -3.1013
 ZZZY=             10.2029 XXYY=          -1444.9557 XXZZ=          -1090.9634 YYZZ=           -786.7851
 XXYZ=             32.1221 YYXZ=             52.8000 ZZXY=            -13.1902
 N-N= 1.837955602478D+03 E-N=-5.799800756473D+03  KE= 9.190357764341D+02
 Unable to Open any file for archive entry.
 1\1\GINC-N2\SP\RB3LYP TD-FC\6-31G\C21H25N2(1+)\HPCMGAC13\13-Jun-2025\0
 \\# td=(50-50,nstates=3) b3lyp/6-31g\\[No Title]\\1,1\C,0,-0.053197,3.
 420308,0.058819\C,0,1.259341,3.295572,0.542586\C,0,1.969902,2.090025,0
 .476612\C,0,1.345093,0.942036,-0.080353\C,0,0.020219,1.057405,-0.56086
 1\C,0,-0.659518,2.285159,-0.490229\H,0,1.747026,4.165953,0.973449\H,0,
 -1.671399,2.364585,-0.880692\C,0,-3.588891,-0.687876,1.187083\C,0,-2.3
 43047,-0.331663,0.711327\C,0,-2.023822,-0.480047,-0.658554\C,0,-3.0365
 14,-0.996257,-1.496366\C,0,-4.274494,-1.337992,-0.985056\H,0,-3.866778
 ,-0.590186,2.227981\H,0,-1.61231,0.080992,1.394741\H,0,-2.856564,-1.12
 4463,-2.556896\H,0,-5.072081,-1.731049,-1.600867\C,0,2.106916,-0.33657
 2,-0.240959\C,0,2.212419,-1.232255,0.773374\C,0,3.544727,-2.732782,-0.
 536925\C,0,3.507919,-1.91052,-1.60034\C,0,2.840475,-0.551575,-1.566944
 \H,0,1.729228,-1.05684,1.729386\H,0,4.046834,-3.692547,-0.564595\H,0,4
 .004281,-2.21457,-2.515536\H,0,2.141452,-0.437198,-2.414373\N,0,-4.546
 812,-1.185722,0.345322\N,0,2.937951,-2.414979,0.689959\C,0,-0.658818,-
 0.151089,-1.191843\H,0,-0.716961,-0.04473,-2.283131\H,0,-0.006217,-1.0
 23913,-1.003133\C,0,-0.77497,4.747997,0.117327\H,0,-0.77267,5.161306,1
 .132898\H,0,-0.29291,5.489882,-0.531438\H,0,-1.816407,4.65429,-0.20576
 7\C,0,3.38791,2.027967,1.003113\H,0,3.738712,3.022219,1.293338\H,0,3.4
 6685,1.375494,1.880596\H,0,4.081778,1.631683,0.253421\C,0,2.945033,-3.
 382514,1.787644\H,0,2.190311,-4.170645,1.654755\H,0,3.928764,-3.854744
 ,1.861888\H,0,2.748645,-2.867277,2.731128\C,0,-5.871813,-1.59024,0.889
 706\H,0,-6.615732,-1.544587,0.094805\H,0,-5.815317,-2.60852,1.282402\H
 ,0,-6.15974,-0.902746,1.685386\H,0,3.584002,0.252,-1.721674\\Version=E
 S64L-G16RevC.02\State=1-A\HF=-924.3338788\RMSD=8.315e-09\PG=C01 [X(C21
 H25N2)]\\@
 The archive entry for this job was punched.


 THE ATTENTION SPAN OF A COMPUTER IS AS LONG
 AS ITS EXTENSION CORD.
 Job cpu time:       0 days  0 hours 24 minutes 38.0 seconds.
 Elapsed time:       0 days  0 hours  1 minutes 35.2 seconds.
 File lengths (MBytes):  RWF=    656 Int=      0 D2E=      0 Chk=     22 Scr=      2
 Normal termination of Gaussian 16 at Fri Jun 13 11:25:11 2025.
