 Entering Gaussian System, Link 0=g16
 Input=M1488.gjf
 Output=M1488.log
 Initial command:
 /hpc/softwares/Gaussian/g16/l1.exe "/hpc/home/hpcmgac13/pbs.11117.admin1.x8z/Gau-184741.inp" -scrdir="/hpc/home/hpcmgac13/pbs.11117.admin1.x8z/"
 Default linda workers: n2
 Default is to use  16 SMP processors on each worker.
 Entering Link 1 = /hpc/softwares/Gaussian/g16/l1.exe PID=    184742.
  
 Copyright (c) 1988-2021, Gaussian, Inc.  All Rights Reserved.
  
 This is part of the Gaussian(R) 16 program.  It is based on
 the Gaussian(R) 09 system (copyright 2009, Gaussian, Inc.),
 the Gaussian(R) 03 system (copyright 2003, Gaussian, Inc.),
 the Gaussian(R) 98 system (copyright 1998, Gaussian, Inc.),
 the Gaussian(R) 94 system (copyright 1995, Gaussian, Inc.),
 the Gaussian 92(TM) system (copyright 1992, Gaussian, Inc.),
 the Gaussian 90(TM) system (copyright 1990, Gaussian, Inc.),
 the Gaussian 88(TM) system (copyright 1988, Gaussian, Inc.),
 the Gaussian 86(TM) system (copyright 1986, Carnegie Mellon
 University), and the Gaussian 82(TM) system (copyright 1983,
 Carnegie Mellon University). Gaussian is a federally registered
 trademark of Gaussian, Inc.
  
 This software contains proprietary and confidential information,
 including trade secrets, belonging to Gaussian, Inc.
  
 This software is provided under written license and may be
 used, copied, transmitted, or stored only in accord with that
 written license.
  
 The following legend is applicable only to US Government
 contracts under FAR:
  
                    RESTRICTED RIGHTS LEGEND
  
 Use, reproduction and disclosure by the US Government is
 subject to restrictions as set forth in subparagraphs (a)
 and (c) of the Commercial Computer Software - Restricted
 Rights clause in FAR 52.227-19.
  
 Gaussian, Inc.
 340 Quinnipiac St., Bldg. 40, Wallingford CT 06492
  
  
 ---------------------------------------------------------------
 Warning -- This program may not be used in any manner that
 competes with the business of Gaussian, Inc. or will provide
 assistance to any competitor of Gaussian, Inc.  The licensee
 of this program is prohibited from giving any competitor of
 Gaussian, Inc. access to this program.  By using this program,
 the user acknowledges that Gaussian, Inc. is engaged in the
 business of creating and licensing software in the field of
 computational chemistry and represents and warrants to the
 licensee that it is not a competitor of Gaussian, Inc. and that
 it will not use this program in any manner prohibited above.
 ---------------------------------------------------------------
  

 Cite this work as:
 Gaussian 16, Revision C.02,
 M. J. Frisch, G. W. Trucks, H. B. Schlegel, G. E. Scuseria, 
 M. A. Robb, J. R. Cheeseman, G. Scalmani, V. Barone, 
 G. A. Petersson, H. Nakatsuji, X. Li, M. Caricato, A. V. Marenich, 
 J. Bloino, B. G. Janesko, R. Gomperts, B. Mennucci, H. P. Hratchian, 
 J. V. Ortiz, A. F. Izmaylov, J. L. Sonnenberg, D. Williams-Young, 
 F. Ding, F. Lipparini, F. Egidi, J. Goings, B. Peng, A. Petrone, 
 T. Henderson, D. Ranasinghe, V. G. Zakrzewski, J. Gao, N. Rega, 
 G. Zheng, W. Liang, M. Hada, M. Ehara, K. Toyota, R. Fukuda, 
 J. Hasegawa, M. Ishida, T. Nakajima, Y. Honda, O. Kitao, H. Nakai, 
 T. Vreven, K. Throssell, J. A. Montgomery, Jr., J. E. Peralta, 
 F. Ogliaro, M. J. Bearpark, J. J. Heyd, E. N. Brothers, K. N. Kudin, 
 V. N. Staroverov, T. A. Keith, R. Kobayashi, J. Normand, 
 K. Raghavachari, A. P. Rendell, J. C. Burant, S. S. Iyengar, 
 J. Tomasi, M. Cossi, J. M. Millam, M. Klene, C. Adamo, R. Cammi, 
 J. W. Ochterski, R. L. Martin, K. Morokuma, O. Farkas, 
 J. B. Foresman, and D. J. Fox, Gaussian, Inc., Wallingford CT, 2019.
 
 ******************************************
 Gaussian 16:  ES64L-G16RevC.02  7-Dec-2021
                13-Jun-2025 
 ******************************************
 SetLPE:    new flags="-opt 'Tsnet.Node.lindarsharg: ssh'  -nodelist 'n2.head.cm.mguif.local' -env GAUSS_MDEF=4294967296 -env GAUSS_EXEDIR="/hpc/softwares/Gaussian/g16/bsd:/hpc/softwares/Gaussian/g16""
 Will use up to    1 processors via Linda.
 ----------------------------------
 # td=(50-50,nstates=3) b3lyp/6-31g
 ----------------------------------
 1/38=1,172=1/1;
 2/12=2,17=6,18=5,40=1/2;
 3/5=1,6=6,11=9,25=1,30=1,74=-5/1,2,3,8;
 4//1;
 5/5=2,38=5/2;
 8/6=1,10=2,108=3/1;
 9/41=3,42=1,48=2,70=2/14;
 6/7=2,8=2,9=2,10=2/1;
 99/5=1,9=1/99;
 ----------
 [No Title]
 ----------
 Symbolic Z-matrix:
 Charge =  0 Multiplicity = 1
 C                     2.23485   4.18854  -0.31904 
 C                     1.18902   3.10055  -0.20876 
 C                    -0.12583   3.40414   0.17845 
 C                    -1.1098    2.41602   0.30296 
 C                    -2.51452   2.80846   0.71185 
 C                    -0.78284   1.0609    0.02919 
 C                    -1.81897  -0.00705   0.19775 
 C                    -2.61789  -0.37139  -0.83027 
 N                    -3.58133  -1.38336  -0.74835 
 C                    -4.55606  -1.5735   -1.81635 
 C                    -3.70418  -2.07316   0.46763 
 C                    -2.95849  -1.78459   1.54909 
 C                    -1.93964  -0.66254   1.57564 
 C                     0.5379    0.74964  -0.36287 
 C                     0.95487  -0.68273  -0.68669 
 C                     1.87716  -1.27264   0.36012 
 O                     1.57248  -1.42784   1.5498 
 C                     3.27192  -1.71237  -0.11402 
 F                     3.06337  -2.6475   -1.16787 
 F                     3.88179  -0.57869  -0.73262 
 C                     4.20074  -2.29072   0.91138 
 C                     1.50192   1.7655   -0.47944 
 H                     1.87901   5.02716  -0.92999 
 H                     2.49312   4.59579   0.6675 
 H                     3.15652   3.81009  -0.77202 
 H                    -0.39202   4.43775   0.38721 
 H                    -2.56904   3.87845   0.93559 
 H                    -3.24133   2.59059  -0.07937 
 H                    -2.84605   2.26108   1.60202 
 H                    -2.53507   0.10247  -1.80337 
 H                    -4.09583  -1.34273  -2.78205 
 H                    -4.88051  -2.61859  -1.83902 
 H                    -5.44742  -0.93838  -1.69877 
 H                    -4.43278  -2.87664   0.46467 
 H                    -3.08019  -2.38629   2.44418 
 H                    -2.20977   0.09551   2.33518 
 H                    -0.95199  -1.03233   1.89403 
 H                     0.06167  -1.3168   -0.72969 
 H                     1.43907  -0.72585  -1.6657 
 H                     4.38712  -1.56009   1.70064 
 H                     3.75194  -3.17729   1.36296 
 H                     5.14459  -2.56162   0.43296 
 H                     2.51099   1.50127  -0.78201 
 
                          Input orientation:                          
 ---------------------------------------------------------------------
 Center     Atomic      Atomic             Coordinates (Angstroms)
 Number     Number       Type             X           Y           Z
 ---------------------------------------------------------------------
      1          6           0        2.234850    4.188539   -0.319039
      2          6           0        1.189025    3.100552   -0.208762
      3          6           0       -0.125829    3.404139    0.178448
      4          6           0       -1.109795    2.416018    0.302956
      5          6           0       -2.514524    2.808462    0.711850
      6          6           0       -0.782840    1.060900    0.029185
      7          6           0       -1.818967   -0.007049    0.197748
      8          6           0       -2.617888   -0.371391   -0.830267
      9          7           0       -3.581328   -1.383355   -0.748351
     10          6           0       -4.556057   -1.573498   -1.816350
     11          6           0       -3.704177   -2.073156    0.467626
     12          6           0       -2.958491   -1.784585    1.549087
     13          6           0       -1.939644   -0.662538    1.575640
     14          6           0        0.537904    0.749641   -0.362868
     15          6           0        0.954874   -0.682734   -0.686692
     16          6           0        1.877160   -1.272640    0.360116
     17          8           0        1.572475   -1.427839    1.549796
     18          6           0        3.271923   -1.712370   -0.114015
     19          9           0        3.063367   -2.647501   -1.167871
     20          9           0        3.881785   -0.578693   -0.732620
     21          6           0        4.200736   -2.290722    0.911376
     22          6           0        1.501921    1.765498   -0.479442
     23          1           0        1.879012    5.027161   -0.929985
     24          1           0        2.493117    4.595788    0.667498
     25          1           0        3.156520    3.810085   -0.772019
     26          1           0       -0.392022    4.437754    0.387210
     27          1           0       -2.569044    3.878452    0.935588
     28          1           0       -3.241331    2.590588   -0.079368
     29          1           0       -2.846046    2.261081    1.602020
     30          1           0       -2.535074    0.102466   -1.803372
     31          1           0       -4.095828   -1.342730   -2.782053
     32          1           0       -4.880506   -2.618589   -1.839019
     33          1           0       -5.447423   -0.938377   -1.698774
     34          1           0       -4.432777   -2.876642    0.464668
     35          1           0       -3.080189   -2.386286    2.444177
     36          1           0       -2.209769    0.095514    2.335179
     37          1           0       -0.951987   -1.032326    1.894028
     38          1           0        0.061670   -1.316795   -0.729693
     39          1           0        1.439073   -0.725850   -1.665704
     40          1           0        4.387119   -1.560088    1.700636
     41          1           0        3.751941   -3.177294    1.362961
     42          1           0        5.144587   -2.561620    0.432963
     43          1           0        2.510993    1.501271   -0.782012
 ---------------------------------------------------------------------
                    Distance matrix (angstroms):
                    1          2          3          4          5
     1  C    0.000000
     2  C    1.513151   0.000000
     3  C    2.536845   1.403901   0.000000
     4  C    3.836060   2.452553   1.400027   0.000000
     5  C    5.052118   3.827417   2.518971   1.514751   0.000000
     6  C    4.360027   2.846937   2.438178   1.420632   2.553181
     7  C    5.856916   4.344013   3.808319   2.526905   2.945370
     8  C    6.678576   5.189725   4.634921   3.365737   3.535573
     9  N    8.065869   6.569083   5.976582   4.652844   4.565259
    10  C    9.031026   7.578723   6.955790   5.681938   5.455385
    11  C    8.666009   7.153194   6.548966   5.187544   5.030419
    12  C    8.132582   6.645035   6.068400   4.755585   4.689792
    13  C    6.674515   5.208983   4.666897   3.433057   3.622770
    14  C    3.835044   2.444277   2.789252   2.436195   3.835502
    15  C    5.050030   3.820536   4.314964   3.852859   5.116746
    16  C    5.514859   4.463402   5.090897   4.746722   6.005497
    17  O    5.956088   4.872975   5.302155   4.850198   5.945751
    18  C    5.994855   5.245156   6.148896   6.034642   7.389380
    19  F    6.938184   6.121533   6.971793   6.724421   8.025818
    20  F    5.060627   4.589360   5.723108   5.912409   7.380520
    21  C    6.881820   6.276221   7.189422   7.122171   8.434228
    22  C    2.536541   1.397691   2.401569   2.802924   4.317265
    23  H    1.096888   2.169808   2.807528   4.155861   5.188584
    24  H    1.098093   2.168921   2.918574   4.226732   5.317233
    25  H    1.094483   2.166041   3.441220   4.615240   5.946920
    26  H    2.731548   2.154762   1.087566   2.147024   2.695366
    27  H    4.974700   4.004716   2.601448   2.160635   1.094491
    28  H    5.709593   4.461486   3.230277   2.172577   1.096241
    29  H    5.763772   4.501715   3.276083   2.173969   1.096328
    30  H    6.453791   5.039863   4.542369   3.438104   3.694479
    31  H    8.760072   7.368463   6.859900   5.706300   5.651573
    32  H    9.963715   8.497383   7.934127   6.644816   6.446525
    33  H    9.338429   7.910469   7.120447   5.837286   5.334024
    34  H    9.746190   8.233165   7.621019   6.251449   6.005098
    35  H    8.894567   7.441080   6.884097   5.615105   5.505119
    36  H    6.599422   5.201316   4.465568   3.274845   3.176186
    37  H    6.504693   5.107479   4.827833   3.800985   4.311696
    38  H    5.932963   4.588600   4.811143   4.046305   5.072728
    39  H    5.157324   4.102019   4.786087   4.499298   5.811631
    40  H    6.462048   5.966169   6.879484   6.926687   8.227673
    41  H    7.706243   6.960618   7.730164   7.486336   8.690328
    42  H    7.388960   6.936748   7.964442   7.994440   9.358287
    43  H    2.740804   2.152653   3.390608   3.888962   5.403350
                    6          7          8          9         10
     6  C    0.000000
     7  C    1.497494   0.000000
     8  C    2.481434   1.351974   0.000000
     9  N    3.796114   2.428011   1.399642   0.000000
    10  C    4.958147   3.741927   2.484737   1.458380   0.000000
    11  C    4.306826   2.809920   2.400115   1.403395   2.488354
    12  C    3.891060   2.506844   2.788271   2.413945   3.731346
    13  C    2.588428   1.530626   2.516579   2.935241   4.379619
    14  C    1.412428   2.538053   3.381449   4.654712   5.784291
    15  C    2.563667   2.988809   3.589175   4.590403   5.695608
    16  C    3.553945   3.910171   4.736530   5.571001   6.798073
    17  O    3.748812   3.917723   4.933551   5.643150   6.993644
    18  C    4.914533   5.377962   6.082854   6.890405   8.012147
    19  F    5.475262   5.716125   6.129544   6.776875   7.722022
    20  F    5.002733   5.804389   6.503711   7.506383   8.565120
    21  C    6.070227   6.477750   7.294572   8.008653   9.199800
    22  C    2.444441   3.824762   4.654267   5.985567   7.045233
    23  H    4.872031   6.347448   7.026835   8.422768   9.260910
    24  H    4.861561   6.324622   7.282756   8.640235   9.691256
    25  H    4.870165   6.345584   7.129651   8.507113   9.463479
    26  H    3.418196   4.672081   5.437334   6.733980   7.637409
    27  H    3.456977   4.025437   4.602368   5.616670   6.422238
    28  H    2.897569   2.974497   3.118630   4.044176   4.699492
    29  H    2.858507   2.858546   3.591376   4.398499   5.414184
    30  H    2.710569   2.128211   1.085510   2.101281   2.625528
    31  H    4.965520   3.980873   2.633871   2.098167   1.094371
    32  H    5.815470   4.510164   3.344685   2.098386   1.094530
    33  H    5.361090   4.198793   3.013643   2.140939   1.100789
    34  H    5.386643   3.890734   3.353649   2.103874   2.629910
    35  H    4.795111   3.506835   3.872403   3.383673   4.581583
    36  H    2.878490   2.175283   3.225618   3.684615   5.052312
    37  H    2.808531   2.163380   3.260958   3.744172   5.200874
    38  H    2.634867   2.472322   2.843226   3.643654   4.750802
    39  H    3.316930   3.821512   4.157226   5.145705   6.056631
    40  H    6.032562   6.571614   7.542453   8.338160   9.609879
    41  H    6.348660   6.514844   7.297812   7.839177   9.038972
    42  H    6.958454   7.421068   8.163876   8.883997  10.006912
    43  H    3.420717   4.688658   5.460276   6.740814   7.776069
                   11         12         13         14         15
    11  C    0.000000
    12  C    1.344946   0.000000
    13  C    2.516171   1.515831   0.000000
    14  C    5.162669   4.722568   3.448232   0.000000
    15  C    4.997247   4.639742   3.673798   1.526573   0.000000
    16  C    5.639478   5.005923   4.051878   2.530994   1.514730
    17  O    5.424996   4.544989   3.594626   3.077343   2.436902
    18  C    7.009597   6.448968   5.578307   3.687585   2.599389
    19  F    6.986013   6.662526   6.041279   4.308894   2.921915
    20  F    7.824374   7.310933   6.262917   3.617005   2.929120
    21  C    7.920347   7.205372   6.387214   4.927864   3.959175
    22  C    6.537252   6.050892   4.686480   1.405306   2.517152
    23  H    9.140012   8.714764   7.296092   4.518558   5.789311
    24  H    9.106109   8.438388   6.937152   4.435917   5.662404
    25  H    9.122412   8.607045   7.175427   4.048564   5.003993
    26  H    7.305394   6.830390   5.460813   3.876797   5.402480
    27  H    6.076936   5.709469   4.628866   4.596583   5.987838
    28  H    4.718468   4.676965   3.875083   4.213321   5.356456
    29  H    4.561672   4.047574   3.061014   4.194801   5.324588
    30  H    3.355229   3.870300   3.515322   3.455008   3.747432
    31  H    3.353703   4.499727   4.909305   5.630448   5.507787
    32  H    2.646102   3.983587   4.912708   6.548524   6.255162
    33  H    3.003318   4.178451   4.806494   6.360675   6.486838
    34  H    1.084646   2.131214   3.514574   6.208254   5.930063
    35  H    2.096226   1.085376   2.241987   5.550147   5.383880
    36  H    3.228644   2.171013   1.106576   3.906027   4.444360
    37  H    3.269939   2.170469   1.101626   3.238636   3.227762
    38  H    4.023339   3.812222   3.122158   2.152096   1.096219
    39  H    5.728818   5.549268   4.682526   2.164847   1.093056
    40  H    8.200770   7.350602   6.391334   4.940582   4.271931
    41  H    7.590418   6.855959   6.226024   5.359976   4.271708
    42  H    8.862303   8.216410   7.422840   5.728815   4.726260
    43  H    7.277806   6.793094   5.481675   2.152605   2.683369
                   16         17         18         19         20
    16  C    0.000000
    17  O    1.237844   0.000000
    18  C    1.537377   2.395276   0.000000
    19  F    2.373199   3.331073   1.424282   0.000000
    20  F    2.386243   3.356097   1.428225   2.266984   0.000000
    21  C    2.596032   2.838997   1.499537   2.396699   2.394890
    22  C    3.174263   3.784202   3.919440   4.731449   3.350087
    23  H    6.430541   6.921727   6.930172   7.769152   5.956144
    24  H    5.908666   6.157119   6.403917   7.493931   5.537507
    25  H    5.362144   5.944398   5.562715   6.470378   4.448475
    26  H    6.144796   6.294127   7.176332   8.034851   6.684623
    27  H    6.828883   6.759153   8.153273   8.873368   8.016374
    28  H    6.427801   6.478785   7.806352   8.268714   7.823673
    29  H    6.028116   5.756230   7.494173   8.166250   7.666718
    30  H    5.102882   5.518834   6.314172   6.269667   6.541144
    31  H    6.749424   7.134551   7.844668   7.453998   8.272015
    32  H    7.232830   7.385318   8.382062   7.972226   9.064383
    33  H    7.615791   7.750597   8.895927   8.696925   9.385997
    34  H    6.511456   6.272128   7.813629   7.675276   8.708961
    35  H    5.491705   4.833820   6.880976   7.131508   7.863111
    36  H    4.740855   4.152445   6.270243   6.899381   6.853683
    37  H    3.227183   2.578340   4.726110   5.301611   5.520001
    38  H    2.117932   2.736957   3.292607   3.312546   3.890769
    39  H    2.143559   3.293938   2.596209   2.564939   2.618997
    40  H    2.859985   2.821784   2.135371   3.341125   2.671934
    41  H    2.854507   2.800995   2.134919   2.675804   3.340815
    42  H    3.513240   3.910596   2.127741   2.627075   2.623976
    43  H    3.066070   3.859771   3.369380   4.203131   2.491538
                   21         22         23         24         25
    21  C    0.000000
    22  C    5.066646   0.000000
    23  H    7.895089   3.314156   0.000000
    24  H    7.099258   3.210683   1.764981   0.000000
    25  H    6.414363   2.646438   1.771512   1.769079   0.000000
    26  H    8.163367   3.388076   2.690725   2.903027   3.785489
    27  H    9.159106   4.799963   4.958336   5.119758   5.975172
    28  H    8.955061   4.831074   5.733965   6.120664   6.549766
    29  H    8.417425   4.845916   6.032282   5.901767   6.638243
    30  H    7.646459   4.562433   6.670801   7.181772   6.870544
    31  H    9.130886   6.804255   8.927731   9.517331   9.120762
    32  H    9.494268   7.861555  10.245727  10.616034  10.346986
    33  H   10.086064   7.555865   9.479205   9.963855   9.870897
    34  H    8.664895   7.593514  10.210477  10.190503  10.190149
    35  H    7.441134   6.839634   9.536133   9.108660   9.361382
    36  H    6.986838   4.948493   7.190311   6.719432   7.228401
    37  H    5.394416   4.413937   7.259958   6.711839   6.887422
    38  H    4.557796   3.411375   6.602168   6.543907   5.988722
    39  H    4.088636   2.760069   5.816525   5.905478   4.931836
    40  H    1.091557   4.912904   7.523471   6.522992   6.038804
    41  H    1.091492   5.734826   8.722302   7.905005   7.330493
    42  H    1.092300   5.729350   8.373243   7.636347   6.782552
    43  H    4.483526   1.086090   3.585135   3.417226   2.397379
                   26         27         28         29         30
    26  H    0.000000
    27  H    2.313647   0.000000
    28  H    3.427576   1.772202   0.000000
    29  H    3.497985   1.771087   1.758377   0.000000
    30  H    5.309053   4.664882   3.108334   4.043886   0.000000
    31  H    7.561508   6.588829   4.848264   5.811153   2.341444
    32  H    8.654164   7.433226   5.737490   6.308007   3.592557
    33  H    7.668846   6.198933   4.465749   5.281944   3.094523
    34  H    8.356679   7.023287   5.621932   5.496133   4.197662
    35  H    7.617406   6.464058   5.582430   4.728855   4.953051
    36  H    5.094491   4.049513   3.622092   2.373194   4.151322
    37  H    5.701389   5.258253   4.718145   3.810414   4.179077
    38  H    5.879468   6.056766   5.157556   5.166517   3.148042
    39  H    5.850656   6.635610   5.951588   6.161333   4.061884
    40  H    7.780706   8.862913   8.865087   8.181059   7.934665
    41  H    8.724304   9.482671   9.179032   8.553742   7.765890
    42  H    8.924537  10.061176   9.855524   9.406134   8.430643
    43  H    4.291562   5.865826   5.896571   5.912596   5.335037
                   31         32         33         34         35
    31  H    0.000000
    32  H    1.769986   0.000000
    33  H    1.778708   1.778813   0.000000
    34  H    3.606608   2.360938   3.076826   0.000000
    35  H    5.425312   4.651975   4.986410   2.447121   0.000000
    36  H    5.640197   5.650055   5.274856   4.156235   2.632270
    37  H    5.643210   5.646692   5.755519   4.190522   2.581688
    38  H    4.636555   5.229759   5.606463   4.905066   4.592226
    39  H    5.679956   6.599210   6.889854   6.606286   6.330237
    40  H    9.596986   9.976896  10.424046   9.002860   7.549579
    41  H    9.062795   9.224097   9.950642   8.239353   6.962235
    42  H    9.859376  10.279477  10.925653   9.582596   8.468923
    43  H    7.465828   8.527882   8.374289   8.302787   7.535430
                   36         37         38         39         40
    36  H    0.000000
    37  H    1.746039   0.000000
    38  H    4.067861   2.827072   0.000000
    39  H    5.476838   4.299161   1.767080   0.000000
    40  H    6.831002   5.368611   4.967414   4.551832   0.000000
    41  H    6.870114   5.197101   4.632360   4.531197   1.769980
    42  H    8.047692   6.453035   5.360728   4.637380   1.784326
    43  H    5.829119   5.056929   3.734088   2.624879   4.365239
                   41         42         43
    41  H    0.000000
    42  H    1.784212   0.000000
    43  H    5.294321   4.991900   0.000000
 Stoichiometry    C18H21F2NO
 Framework group  C1[X(C18H21F2NO)]
 Deg. of freedom   123
 Full point group                 C1      NOp   1
 Largest Abelian subgroup         C1      NOp   1
 Largest concise Abelian subgroup C1      NOp   1
                         Standard orientation:                         
 ---------------------------------------------------------------------
 Center     Atomic      Atomic             Coordinates (Angstroms)
 Number     Number       Type             X           Y           Z
 ---------------------------------------------------------------------
      1          6           0        2.234850    4.188539   -0.319039
      2          6           0        1.189025    3.100552   -0.208762
      3          6           0       -0.125829    3.404139    0.178448
      4          6           0       -1.109795    2.416018    0.302956
      5          6           0       -2.514524    2.808462    0.711850
      6          6           0       -0.782840    1.060900    0.029185
      7          6           0       -1.818967   -0.007049    0.197748
      8          6           0       -2.617888   -0.371391   -0.830267
      9          7           0       -3.581328   -1.383355   -0.748351
     10          6           0       -4.556057   -1.573498   -1.816350
     11          6           0       -3.704177   -2.073156    0.467626
     12          6           0       -2.958491   -1.784585    1.549087
     13          6           0       -1.939644   -0.662538    1.575640
     14          6           0        0.537904    0.749641   -0.362868
     15          6           0        0.954874   -0.682734   -0.686692
     16          6           0        1.877160   -1.272640    0.360116
     17          8           0        1.572475   -1.427839    1.549796
     18          6           0        3.271923   -1.712370   -0.114015
     19          9           0        3.063367   -2.647501   -1.167871
     20          9           0        3.881785   -0.578693   -0.732620
     21          6           0        4.200736   -2.290722    0.911376
     22          6           0        1.501921    1.765498   -0.479442
     23          1           0        1.879012    5.027161   -0.929985
     24          1           0        2.493117    4.595788    0.667498
     25          1           0        3.156520    3.810085   -0.772019
     26          1           0       -0.392022    4.437754    0.387210
     27          1           0       -2.569044    3.878452    0.935588
     28          1           0       -3.241331    2.590588   -0.079368
     29          1           0       -2.846046    2.261081    1.602020
     30          1           0       -2.535074    0.102466   -1.803372
     31          1           0       -4.095828   -1.342730   -2.782053
     32          1           0       -4.880506   -2.618589   -1.839019
     33          1           0       -5.447423   -0.938377   -1.698774
     34          1           0       -4.432777   -2.876642    0.464668
     35          1           0       -3.080189   -2.386286    2.444177
     36          1           0       -2.209769    0.095514    2.335179
     37          1           0       -0.951987   -1.032326    1.894028
     38          1           0        0.061670   -1.316795   -0.729693
     39          1           0        1.439073   -0.725850   -1.665704
     40          1           0        4.387119   -1.560088    1.700636
     41          1           0        3.751941   -3.177294    1.362961
     42          1           0        5.144587   -2.561620    0.432963
     43          1           0        2.510993    1.501271   -0.782012
 ---------------------------------------------------------------------
 Rotational constants (GHZ):           0.3237383           0.2050011           0.1449399
 Standard basis: 6-31G (6D, 7F)
 There are   240 symmetry adapted cartesian basis functions of A   symmetry.
 There are   240 symmetry adapted basis functions of A   symmetry.
   240 basis functions,   568 primitive gaussians,   240 cartesian basis functions
    81 alpha electrons       81 beta electrons
       nuclear repulsion energy      1820.5313993037 Hartrees.
 NAtoms=   43 NActive=   43 NUniq=   43 SFac= 1.00D+00 NAtFMM=   60 NAOKFM=F Big=F
 Integral buffers will be    131072 words long.
 Regular integral format.
 Two-electron integral symmetry is turned on.
 One-electron integrals computed using PRISM.
 NBasis=   240 RedAO= T EigKep=  4.31D-04  NBF=   240
 NBsUse=   240 1.00D-06 EigRej= -1.00D+00 NBFU=   240
 ExpMin= 1.61D-01 ExpMax= 7.00D+03 ExpMxC= 1.05D+03 IAcc=3 IRadAn=         5 AccDes= 0.00D+00
 Harris functional with IExCor=  402 and IRadAn=       5 diagonalized for initial guess.
 HarFok:  IExCor=  402 AccDes= 0.00D+00 IRadAn=         5 IDoV= 1 UseB2=F ITyADJ=14
 ICtDFT=  3500011 ScaDFX=  1.000000  1.000000  1.000000  1.000000
 FoFCou: FMM=F IPFlag=           0 FMFlag=      100000 FMFlg1=           0
         NFxFlg=           0 DoJE=T BraDBF=F KetDBF=T FulRan=T
         wScrn=  0.000000 ICntrl=       500 IOpCl=  0 I1Cent=   200000004 NGrid=           0
         NMat0=    1 NMatS0=      1 NMatT0=    0 NMatD0=    1 NMtDS0=    0 NMtDT0=    0
 Petite list used in FoFCou.
 Requested convergence on RMS density matrix=1.00D-08 within 128 cycles.
 Requested convergence on MAX density matrix=1.00D-06.
 Requested convergence on             energy=1.00D-06.
 No special actions if energy rises.
 Integral accuracy reduced to 1.0D-05 until final iterations.
 Initial convergence to 1.0D-05 achieved.  Increase integral accuracy.
 SCF Done:  E(RB3LYP) =  -1027.94429873     A.U. after   15 cycles
            NFock= 15  Conv=0.87D-08     -V/T= 2.0055
 DoSCS=F DFT=T ScalE2(SS,OS)=  1.000000  1.000000
 ExpMin= 1.61D-01 ExpMax= 7.00D+03 ExpMxC= 1.05D+03 IAcc=3 IRadAn=         5 AccDes= 0.00D+00
 HarFok:  IExCor=  205 AccDes= 0.00D+00 IRadAn=         5 IDoV=-2 UseB2=F ITyADJ=14
 ICtDFT= 12500011 ScaDFX=  1.000000  1.000000  1.000000  1.000000
 GSVD:  LWork=        -660 too small for GESVD, short by        2750 words or        2750 for optimal perf.
 Range of M.O.s used for correlation:    23   240
 NBasis=   240 NAE=    81 NBE=    81 NFC=    22 NFV=     0
 NROrb=    218 NOA=    59 NOB=    59 NVA=   159 NVB=   159
 Keep R1, R2, and R3 ints in memory in canonical form, NReq=1366520068.
 Orbital symmetries:
       Occupied  (A) (A) (A) (A) (A) (A) (A) (A) (A) (A) (A) (A)
                 (A) (A) (A) (A) (A) (A) (A) (A) (A) (A) (A) (A)
                 (A) (A) (A) (A) (A) (A) (A) (A) (A) (A) (A) (A)
                 (A) (A) (A) (A) (A) (A) (A) (A) (A) (A) (A) (A)
                 (A) (A) (A) (A) (A) (A) (A) (A) (A) (A) (A) (A)
                 (A) (A) (A) (A) (A) (A) (A) (A) (A) (A) (A) (A)
                 (A) (A) (A) (A) (A) (A) (A) (A) (A)
       Virtual   (A) (A) (A) (A) (A) (A) (A) (A) (A) (A) (A) (A)
                 (A) (A) (A) (A) (A) (A) (A) (A) (A) (A) (A) (A)
                 (A) (A) (A) (A) (A) (A) (A) (A) (A) (A) (A) (A)
                 (A) (A) (A) (A) (A) (A) (A) (A) (A) (A) (A) (A)
                 (A) (A) (A) (A) (A) (A) (A) (A) (A) (A) (A) (A)
                 (A) (A) (A) (A) (A) (A) (A) (A) (A) (A) (A) (A)
                 (A) (A) (A) (A) (A) (A) (A) (A) (A) (A) (A) (A)
                 (A) (A) (A) (A) (A) (A) (A) (A) (A) (A) (A) (A)
                 (A) (A) (A) (A) (A) (A) (A) (A) (A) (A) (A) (A)
                 (A) (A) (A) (A) (A) (A) (A) (A) (A) (A) (A) (A)
                 (A) (A) (A) (A) (A) (A) (A) (A) (A) (A) (A) (A)
                 (A) (A) (A) (A) (A) (A) (A) (A) (A) (A) (A) (A)
                 (A) (A) (A) (A) (A) (A) (A) (A) (A) (A) (A) (A)
                 (A) (A) (A)
    24 initial guesses have been made.
 Convergence on wavefunction:    0.001000000000000
 Iteration     1 Dimension    24 NMult     0 NNew     24
 CISAX will form    24 AO SS matrices at one time.
 New state      1 was old state      2
 New state      2 was old state      1
 New state      3 was old state     12
 New state      4 was old state     16
 New state      6 was old state      4
 New state      7 was old state      3
 New state      9 was old state      7
 New state     10 was old state      6
 New state     11 was old state     10
 New state     12 was old state      9
 Vector   6 SDiff=6.77D+00 TDiff=6.42D+00 assumed to be triplet.
 Vector  12 SDiff=6.83D+00 TDiff=6.25D+00 assumed to be triplet.
 Iteration     2 Dimension    36 NMult    24 NNew     12
 New state      6 was old state      7
 Iteration     3 Dimension    48 NMult    36 NNew     12
 Iteration     4 Dimension    60 NMult    48 NNew     12
 Iteration     5 Dimension    70 NMult    60 NNew     10
 Iteration     6 Dimension    74 NMult    70 NNew      4
 ***********************************************************************
 Excited states from <AA,BB:AA,BB> singles matrix:
 ***********************************************************************
 
 Ground to excited state transition densities written to RWF  633
 Ground to excited state transition electric dipole moments (Au):
       state          X           Y           Z        Dip. S.      Osc.
         1        -0.0000      0.0000     -0.0000      0.0000      0.0000
         2        -0.3919      0.0567     -0.0198      0.1572      0.0085
         3        -0.0000     -0.0000      0.0000      0.0000      0.0000
         4        -0.0000      0.0000      0.0000      0.0000      0.0000
         5         0.1275     -0.1572      0.0124      0.0411      0.0036
         6         0.0037     -0.2235      0.0327      0.0510      0.0047
 Ground to excited state transition velocity dipole moments (Au):
       state          X           Y           Z        Dip. S.      Osc.
         1        -0.0000      0.0000     -0.0000      0.0000      0.0000
         2         0.0274     -0.0077     -0.0007      0.0008      0.0067
         3         0.0000     -0.0000      0.0000      0.0000      0.0000
         4         0.0000     -0.0000     -0.0000      0.0000      0.0000
         5        -0.0150      0.0166     -0.0014      0.0005      0.0025
         6         0.0020      0.0273     -0.0021      0.0008      0.0036
 Ground to excited state transition magnetic dipole moments (Au):
       state          X           Y           Z
         1         0.0000      0.0000      0.0000
         2         0.0203     -0.1896      0.0886
         3        -0.0000     -0.0000      0.0000
         4        -0.0000      0.0000     -0.0000
         5         0.3127      0.0927     -0.4888
         6         0.0144      0.0515     -0.1181
 Ground to excited state transition velocity quadrupole moments (Au):
       state          XX          YY          ZZ          XY          XZ          YZ
         1         0.0000      0.0000     -0.0000      0.0000     -0.0000      0.0000
         2        -0.0458      0.0160     -0.0169     -0.0815     -0.0065      0.0012
         3        -0.0000     -0.0000     -0.0000      0.0000      0.0000     -0.0000
         4        -0.0000     -0.0000      0.0000     -0.0000     -0.0000      0.0000
         5        -0.0298      0.0653      0.0009     -0.0086     -0.0207      0.0217
         6        -0.0258      0.1444     -0.0067      0.0516     -0.0228      0.0022
 <0|del|b> * <b|rxdel|0> + <0|del|b> * <b|delr+rdel|0>
 Rotatory Strengths (R) in cgs (10**-40 erg-esu-cm/Gauss)
       state          XX          YY          ZZ    R(velocity)    E-M Angle
         1         0.0000     -0.0000     -0.0000     -0.0000       90.00
         2         6.0995      2.0614      8.8402      5.6670       70.99
         3         0.0000     -0.0000     -0.0000     -0.0000       90.00
         4        -0.0000     -0.0000     -0.0000     -0.0000       90.00
         5         6.8778    -11.6367     -8.5123     -4.4237      100.87
         6         5.5260      0.9942      2.0574      2.8592       61.78
 1/2[<0|r|b>*<b|rxdel|0> + (<0|rxdel|b>*<b|r|0>)*]
 Rotatory Strengths (R) in cgs (10**-40 erg-esu-cm/Gauss)
       state          XX          YY          ZZ     R(length)
         1         0.0000     -0.0000      0.0000      0.0000
         2         5.6295      7.5962      1.2416      4.8225
         3        -0.0000     -0.0000     -0.0000     -0.0000
         4        -0.0000     -0.0000      0.0000     -0.0000
         5       -28.1944     10.3045      4.2997     -4.5301
         6        -0.0371      8.1406      2.7321      3.6119
  1/2[<0|del|b>*<b|r|0> + (<0|r|b>*<b|del|0>)*] (Au)
       state          X           Y           Z        Dip. S.   Osc.(frdel)
         1         0.0000      0.0000      0.0000     -0.0000     -0.0000
         2        -0.0107     -0.0004      0.0000      0.0111      0.0074
         3        -0.0000      0.0000      0.0000      0.0000      0.0000
         4        -0.0000     -0.0000     -0.0000      0.0000      0.0000
         5        -0.0019     -0.0026     -0.0000      0.0045      0.0030
         6         0.0000     -0.0061     -0.0001      0.0062      0.0041

 Excitation energies and oscillator strengths:
 
 Excited State   1:      Triplet-A      2.1624 eV  573.37 nm  f=0.0000  <S**2>=2.000
      81 -> 82         0.70468
 This state for optimization and/or second-order correction.
 Total Energy, E(TD-HF/TD-DFT) =  -1027.86483326    
 Copying the excited state density for this state as the 1-particle RhoCI density.
 
 Excited State   2:      Singlet-A      2.2044 eV  562.45 nm  f=0.0085  <S**2>=0.000
      81 -> 82         0.70654
 
 Excited State   3:      Triplet-A      2.8416 eV  436.32 nm  f=0.0000  <S**2>=2.000
      78 -> 86         0.14487
      81 -> 83        -0.21796
      81 -> 84        -0.11035
      81 -> 85         0.64787
 
 Excited State   4:      Triplet-A      3.0963 eV  400.43 nm  f=0.0000  <S**2>=2.000
      77 -> 82         0.56474
      79 -> 82         0.39602
      80 -> 82        -0.10915
 
 Excited State   5:      Singlet-A      3.6034 eV  344.08 nm  f=0.0036  <S**2>=0.000
      77 -> 82         0.38228
      79 -> 82         0.54104
      80 -> 82        -0.23724
 
 Excited State   6:      Singlet-A      3.7829 eV  327.75 nm  f=0.0047  <S**2>=0.000
      77 -> 82         0.10706
      79 -> 82         0.21311
      80 -> 82         0.66450
 SavETr:  write IOETrn=   770 NScale= 10 NData=  16 NLR=1 NState=    6 LETran=     118.

 **********************************************************************

            Population analysis using the SCF Density.

 **********************************************************************

 Orbital symmetries:
       Occupied  (A) (A) (A) (A) (A) (A) (A) (A) (A) (A) (A) (A)
                 (A) (A) (A) (A) (A) (A) (A) (A) (A) (A) (A) (A)
                 (A) (A) (A) (A) (A) (A) (A) (A) (A) (A) (A) (A)
                 (A) (A) (A) (A) (A) (A) (A) (A) (A) (A) (A) (A)
                 (A) (A) (A) (A) (A) (A) (A) (A) (A) (A) (A) (A)
                 (A) (A) (A) (A) (A) (A) (A) (A) (A) (A) (A) (A)
                 (A) (A) (A) (A) (A) (A) (A) (A) (A)
       Virtual   (A) (A) (A) (A) (A) (A) (A) (A) (A) (A) (A) (A)
                 (A) (A) (A) (A) (A) (A) (A) (A) (A) (A) (A) (A)
                 (A) (A) (A) (A) (A) (A) (A) (A) (A) (A) (A) (A)
                 (A) (A) (A) (A) (A) (A) (A) (A) (A) (A) (A) (A)
                 (A) (A) (A) (A) (A) (A) (A) (A) (A) (A) (A) (A)
                 (A) (A) (A) (A) (A) (A) (A) (A) (A) (A) (A) (A)
                 (A) (A) (A) (A) (A) (A) (A) (A) (A) (A) (A) (A)
                 (A) (A) (A) (A) (A) (A) (A) (A) (A) (A) (A) (A)
                 (A) (A) (A) (A) (A) (A) (A) (A) (A) (A) (A) (A)
                 (A) (A) (A) (A) (A) (A) (A) (A) (A) (A) (A) (A)
                 (A) (A) (A) (A) (A) (A) (A) (A) (A) (A) (A) (A)
                 (A) (A) (A) (A) (A) (A) (A) (A) (A) (A) (A) (A)
                 (A) (A) (A) (A) (A) (A) (A) (A) (A) (A) (A) (A)
                 (A) (A) (A)
 The electronic state is 1-A.
 Alpha  occ. eigenvalues --  -24.70540 -24.70333 -19.17047 -14.35602 -10.36159
 Alpha  occ. eigenvalues --  -10.30354 -10.22046 -10.21105 -10.20795 -10.19822
 Alpha  occ. eigenvalues --  -10.19570 -10.19540 -10.18977 -10.18882 -10.18623
 Alpha  occ. eigenvalues --  -10.17631 -10.17375 -10.17339 -10.17321 -10.17314
 Alpha  occ. eigenvalues --  -10.16929 -10.16484  -1.23964  -1.18569  -1.07735
 Alpha  occ. eigenvalues --   -0.95522  -0.86313  -0.80603  -0.80143  -0.78968
 Alpha  occ. eigenvalues --   -0.77662  -0.75437  -0.73079  -0.71289  -0.68717
 Alpha  occ. eigenvalues --   -0.67889  -0.66910  -0.63019  -0.61385  -0.58900
 Alpha  occ. eigenvalues --   -0.56588  -0.56314  -0.53849  -0.51940  -0.50847
 Alpha  occ. eigenvalues --   -0.50437  -0.49455  -0.48333  -0.47690  -0.45730
 Alpha  occ. eigenvalues --   -0.45267  -0.44532  -0.44207  -0.43102  -0.42625
 Alpha  occ. eigenvalues --   -0.42363  -0.41954  -0.41727  -0.41380  -0.41127
 Alpha  occ. eigenvalues --   -0.40665  -0.40495  -0.40163  -0.39613  -0.39192
 Alpha  occ. eigenvalues --   -0.38853  -0.38768  -0.37761  -0.37248  -0.36256
 Alpha  occ. eigenvalues --   -0.35697  -0.35014  -0.33688  -0.33037  -0.32815
 Alpha  occ. eigenvalues --   -0.31459  -0.27382  -0.25449  -0.23251  -0.22721
 Alpha  occ. eigenvalues --   -0.16562
 Alpha virt. eigenvalues --   -0.06310   0.00442   0.00862   0.01781   0.07193
 Alpha virt. eigenvalues --    0.08824   0.09581   0.10915   0.11041   0.11412
 Alpha virt. eigenvalues --    0.11539   0.12375   0.12690   0.13078   0.13995
 Alpha virt. eigenvalues --    0.14601   0.14983   0.16112   0.16226   0.16665
 Alpha virt. eigenvalues --    0.16892   0.17254   0.18039   0.18277   0.18683
 Alpha virt. eigenvalues --    0.18949   0.20007   0.20125   0.20926   0.21430
 Alpha virt. eigenvalues --    0.22493   0.23372   0.24846   0.25418   0.25805
 Alpha virt. eigenvalues --    0.26821   0.27966   0.29046   0.30920   0.33166
 Alpha virt. eigenvalues --    0.33309   0.35760   0.36396   0.37452   0.39383
 Alpha virt. eigenvalues --    0.39565   0.42307   0.44565   0.47344   0.50418
 Alpha virt. eigenvalues --    0.50909   0.51973   0.53228   0.54087   0.54350
 Alpha virt. eigenvalues --    0.55373   0.55462   0.56441   0.57206   0.57336
 Alpha virt. eigenvalues --    0.57857   0.58103   0.58542   0.59425   0.59738
 Alpha virt. eigenvalues --    0.60618   0.61091   0.62026   0.62662   0.63453
 Alpha virt. eigenvalues --    0.64054   0.64431   0.65666   0.65988   0.67964
 Alpha virt. eigenvalues --    0.68045   0.69479   0.69651   0.70828   0.71176
 Alpha virt. eigenvalues --    0.73388   0.74637   0.75013   0.75501   0.76927
 Alpha virt. eigenvalues --    0.77441   0.77919   0.78705   0.79541   0.80037
 Alpha virt. eigenvalues --    0.80682   0.82623   0.83206   0.85554   0.86323
 Alpha virt. eigenvalues --    0.87110   0.87348   0.88150   0.88879   0.89618
 Alpha virt. eigenvalues --    0.90216   0.91662   0.91971   0.92831   0.93538
 Alpha virt. eigenvalues --    0.93941   0.95319   0.95817   0.96035   0.96876
 Alpha virt. eigenvalues --    0.96980   0.97373   0.98263   0.98513   1.00184
 Alpha virt. eigenvalues --    1.00271   1.01516   1.02152   1.03255   1.05841
 Alpha virt. eigenvalues --    1.06101   1.08356   1.08823   1.10572   1.12213
 Alpha virt. eigenvalues --    1.13202   1.14819   1.16119   1.17642   1.19436
 Alpha virt. eigenvalues --    1.22651   1.23571   1.25493   1.26968   1.29579
 Alpha virt. eigenvalues --    1.29923   1.32107   1.33036   1.34408   1.37794
 Alpha virt. eigenvalues --    1.41374   1.43628   1.44563   1.46119   1.48911
 Alpha virt. eigenvalues --    1.51119   1.52687   1.56290   1.56751   1.56955
 Alpha virt. eigenvalues --    1.61147   1.63913   1.70662   1.73354   1.93222
 Alpha virt. eigenvalues --    1.95170   1.97888   2.01325   2.47935
          Condensed to atoms (all electrons):
               1          2          3          4          5          6
     1  C    5.165901   0.304841  -0.049942   0.005119  -0.000210   0.001083
     2  C    0.304841   4.803350   0.504336  -0.035107   0.006199  -0.032143
     3  C   -0.049942   0.504336   5.078287   0.500381  -0.047315  -0.042061
     4  C    0.005119  -0.035107   0.500381   4.905762   0.315531   0.480221
     5  C   -0.000210   0.006199  -0.047315   0.315531   5.170893  -0.052781
     6  C    0.001083  -0.032143  -0.042061   0.480221  -0.052781   5.041212
     7  C    0.000004  -0.000103   0.008436  -0.070542  -0.007670   0.336378
     8  C   -0.000000   0.000030  -0.000043  -0.005224   0.001525  -0.019029
     9  N   -0.000000  -0.000000   0.000001   0.000156  -0.000175   0.003276
    10  C   -0.000000   0.000000  -0.000000  -0.000003   0.000000  -0.000065
    11  C    0.000000   0.000000   0.000000   0.000002   0.000040   0.000850
    12  C    0.000000   0.000000   0.000000   0.000070   0.000038   0.005953
    13  C   -0.000000   0.000008   0.000005  -0.001158  -0.001654  -0.042632
    14  C    0.006372  -0.035024  -0.053795  -0.033340   0.006876   0.496070
    15  C   -0.000246   0.006030   0.000720   0.006557  -0.000173  -0.035913
    16  C    0.000000   0.000135   0.000009  -0.000120   0.000000  -0.001670
    17  O    0.000000  -0.000018   0.000001  -0.000010   0.000000   0.000335
    18  C   -0.000001   0.000035   0.000001  -0.000000  -0.000000  -0.000162
    19  F   -0.000000  -0.000000   0.000000  -0.000000  -0.000000  -0.000001
    20  F   -0.000005   0.000141   0.000000  -0.000000   0.000000  -0.000012
    21  C   -0.000000   0.000000   0.000000  -0.000000   0.000000   0.000002
    22  C   -0.036650   0.519923  -0.049977  -0.048906   0.000665  -0.048260
    23  H    0.366044  -0.033429  -0.002541   0.000162   0.000000   0.000009
    24  H    0.366294  -0.032623  -0.002859  -0.000004   0.000002   0.000013
    25  H    0.367265  -0.035354   0.003165  -0.000181   0.000002  -0.000017
    26  H   -0.005261  -0.045404   0.346205  -0.032570  -0.007479   0.004739
    27  H   -0.000002   0.000455  -0.001539  -0.036110   0.358904   0.004246
    28  H    0.000003  -0.000205  -0.000130  -0.031264   0.365326  -0.003983
    29  H    0.000002  -0.000207   0.000682  -0.029448   0.364237  -0.006065
    30  H   -0.000000  -0.000012  -0.000034   0.001054   0.000002  -0.002334
    31  H   -0.000000  -0.000000  -0.000000   0.000003  -0.000001  -0.000001
    32  H   -0.000000  -0.000000   0.000000   0.000000  -0.000000   0.000002
    33  H    0.000000   0.000000   0.000000  -0.000002   0.000002   0.000002
    34  H   -0.000000  -0.000000   0.000000   0.000000   0.000000  -0.000010
    35  H   -0.000000  -0.000000  -0.000000   0.000001  -0.000002  -0.000190
    36  H   -0.000000  -0.000013  -0.000093   0.003348  -0.001795  -0.002657
    37  H    0.000000  -0.000003   0.000024  -0.000673   0.000183  -0.001687
    38  H    0.000001  -0.000138  -0.000025   0.000718  -0.000007  -0.009332
    39  H    0.000002   0.000118   0.000002  -0.000141   0.000002   0.002067
    40  H   -0.000000   0.000000  -0.000000   0.000000   0.000000  -0.000000
    41  H    0.000000  -0.000000  -0.000000   0.000000   0.000000   0.000000
    42  H    0.000000  -0.000000  -0.000000   0.000000  -0.000000  -0.000000
    43  H   -0.007314  -0.028247   0.005262   0.000582   0.000008   0.003929
               7          8          9         10         11         12
     1  C    0.000004  -0.000000  -0.000000  -0.000000   0.000000   0.000000
     2  C   -0.000103   0.000030  -0.000000   0.000000   0.000000   0.000000
     3  C    0.008436  -0.000043   0.000001  -0.000000   0.000000   0.000000
     4  C   -0.070542  -0.005224   0.000156  -0.000003   0.000002   0.000070
     5  C   -0.007670   0.001525  -0.000175   0.000000   0.000040   0.000038
     6  C    0.336378  -0.019029   0.003276  -0.000065   0.000850   0.005953
     7  C    5.047157   0.617213  -0.038062   0.003935  -0.005030  -0.014440
     8  C    0.617213   4.835094   0.224491  -0.032294  -0.055340  -0.014228
     9  N   -0.038062   0.224491   7.236205   0.261023   0.257364  -0.050776
    10  C    0.003935  -0.032294   0.261023   4.915618  -0.033223   0.003839
    11  C   -0.005030  -0.055340   0.257364  -0.033223   4.740105   0.666545
    12  C   -0.014440  -0.014228  -0.050776   0.003839   0.666545   5.001254
    13  C    0.328884  -0.052887  -0.030401   0.000060  -0.045912   0.307115
    14  C   -0.064959  -0.003214   0.000098  -0.000000   0.000021   0.000138
    15  C   -0.022664  -0.003950  -0.000003   0.000000  -0.000009  -0.000299
    16  C    0.001274   0.000199  -0.000001  -0.000000   0.000002  -0.000008
    17  O    0.000312   0.000022  -0.000000   0.000000   0.000002   0.000079
    18  C    0.000019  -0.000000  -0.000000   0.000000   0.000000   0.000000
    19  F    0.000001  -0.000000  -0.000000   0.000000  -0.000000   0.000000
    20  F   -0.000000  -0.000000   0.000000  -0.000000  -0.000000  -0.000000
    21  C    0.000000   0.000000   0.000000   0.000000  -0.000000  -0.000000
    22  C    0.008853  -0.000002   0.000001  -0.000000   0.000000   0.000002
    23  H   -0.000000  -0.000000   0.000000  -0.000000   0.000000  -0.000000
    24  H   -0.000000   0.000000  -0.000000   0.000000  -0.000000   0.000000
    25  H   -0.000000  -0.000000   0.000000   0.000000  -0.000000  -0.000000
    26  H   -0.000213  -0.000004  -0.000000   0.000000  -0.000000  -0.000000
    27  H    0.000705   0.000100  -0.000001  -0.000000  -0.000000   0.000001
    28  H    0.002778   0.002216  -0.000150   0.000005   0.000002   0.000009
    29  H    0.000624  -0.000216   0.000056  -0.000001   0.000003  -0.000337
    30  H   -0.040171   0.369055  -0.056983  -0.003408   0.003895  -0.000382
    31  H    0.000430  -0.000783  -0.043893   0.378112   0.002374  -0.000212
    32  H   -0.000211   0.002246  -0.044190   0.378265  -0.000981   0.000403
    33  H    0.000114   0.001413  -0.057518   0.371015   0.001555   0.000187
    34  H   -0.000430   0.004607  -0.060311  -0.003118   0.368869  -0.031112
    35  H    0.003136   0.000880   0.004551  -0.000135  -0.033575   0.357550
    36  H   -0.047431  -0.000637   0.001691   0.000023  -0.001088  -0.043345
    37  H   -0.044003   0.000646   0.000691  -0.000002   0.000699  -0.037872
    38  H    0.019327   0.007346  -0.000720  -0.000008   0.000219   0.000636
    39  H    0.000221   0.000123  -0.000004   0.000000  -0.000001   0.000002
    40  H   -0.000000  -0.000000   0.000000  -0.000000  -0.000000  -0.000000
    41  H    0.000000   0.000000  -0.000000   0.000000  -0.000000   0.000000
    42  H   -0.000000  -0.000000   0.000000   0.000000  -0.000000  -0.000000
    43  H   -0.000171  -0.000003  -0.000000   0.000000  -0.000000  -0.000000
              13         14         15         16         17         18
     1  C   -0.000000   0.006372  -0.000246   0.000000   0.000000  -0.000001
     2  C    0.000008  -0.035024   0.006030   0.000135  -0.000018   0.000035
     3  C    0.000005  -0.053795   0.000720   0.000009   0.000001   0.000001
     4  C   -0.001158  -0.033340   0.006557  -0.000120  -0.000010  -0.000000
     5  C   -0.001654   0.006876  -0.000173   0.000000   0.000000  -0.000000
     6  C   -0.042632   0.496070  -0.035913  -0.001670   0.000335  -0.000162
     7  C    0.328884  -0.064959  -0.022664   0.001274   0.000312   0.000019
     8  C   -0.052887  -0.003214  -0.003950   0.000199   0.000022  -0.000000
     9  N   -0.030401   0.000098  -0.000003  -0.000001  -0.000000  -0.000000
    10  C    0.000060  -0.000000   0.000000  -0.000000   0.000000   0.000000
    11  C   -0.045912   0.000021  -0.000009   0.000002   0.000002   0.000000
    12  C    0.307115   0.000138  -0.000299  -0.000008   0.000079   0.000000
    13  C    5.174799  -0.002685   0.002196  -0.000568  -0.004986  -0.000038
    14  C   -0.002685   4.997432   0.263099  -0.034459   0.002549   0.001582
    15  C    0.002196   0.263099   5.614116   0.171362  -0.108033  -0.135886
    16  C   -0.000568  -0.034459   0.171362   5.148577   0.506293   0.056084
    17  O   -0.004986   0.002549  -0.108033   0.506293   8.056873  -0.098480
    18  C   -0.000038   0.001582  -0.135886   0.056084  -0.098480   5.146823
    19  F    0.000000   0.000574   0.005350  -0.039284   0.000961   0.184030
    20  F    0.000000  -0.003431   0.007999  -0.042435   0.000912   0.181804
    21  C    0.000001  -0.000007   0.008688  -0.064720   0.012141   0.233563
    22  C   -0.000087   0.444383  -0.061254  -0.002647  -0.000715   0.001524
    23  H    0.000000  -0.000213   0.000003   0.000000  -0.000000  -0.000000
    24  H   -0.000000  -0.000174   0.000004  -0.000001   0.000000   0.000000
    25  H    0.000000   0.000412   0.000000   0.000001   0.000000   0.000000
    26  H    0.000001   0.000665   0.000011   0.000000  -0.000000   0.000000
    27  H    0.000030  -0.000163   0.000002  -0.000000   0.000000   0.000000
    28  H   -0.000007   0.000083   0.000006  -0.000000   0.000000  -0.000000
    29  H    0.001051  -0.000055  -0.000002  -0.000000  -0.000000  -0.000000
    30  H    0.005427   0.000587   0.000250   0.000013   0.000000   0.000000
    31  H   -0.000002  -0.000003  -0.000002   0.000000   0.000000   0.000000
    32  H    0.000000  -0.000000  -0.000000   0.000000   0.000000  -0.000000
    33  H    0.000010   0.000000   0.000000  -0.000000  -0.000000  -0.000000
    34  H    0.005301   0.000000  -0.000000   0.000000   0.000000   0.000000
    35  H   -0.036373  -0.000001  -0.000002   0.000001  -0.000002  -0.000000
    36  H    0.354376  -0.000316  -0.000166   0.000031   0.000073   0.000000
    37  H    0.361258   0.002858  -0.000327   0.001059   0.016185   0.000229
    38  H   -0.001126  -0.027595   0.338629  -0.028268  -0.001439   0.003882
    39  H    0.000002  -0.028336   0.348357  -0.034823   0.003311   0.006933
    40  H    0.000000  -0.000038   0.000017  -0.002382   0.001685  -0.017726
    41  H   -0.000000   0.000005   0.000024  -0.002028   0.002070  -0.018517
    42  H    0.000000   0.000001  -0.000077   0.006571   0.000234  -0.025259
    43  H    0.000002  -0.041539  -0.005579  -0.000991   0.000043  -0.000299
              19         20         21         22         23         24
     1  C   -0.000000  -0.000005  -0.000000  -0.036650   0.366044   0.366294
     2  C   -0.000000   0.000141   0.000000   0.519923  -0.033429  -0.032623
     3  C    0.000000   0.000000   0.000000  -0.049977  -0.002541  -0.002859
     4  C   -0.000000  -0.000000  -0.000000  -0.048906   0.000162  -0.000004
     5  C   -0.000000   0.000000   0.000000   0.000665   0.000000   0.000002
     6  C   -0.000001  -0.000012   0.000002  -0.048260   0.000009   0.000013
     7  C    0.000001  -0.000000   0.000000   0.008853  -0.000000  -0.000000
     8  C   -0.000000  -0.000000   0.000000  -0.000002  -0.000000   0.000000
     9  N   -0.000000   0.000000   0.000000   0.000001   0.000000  -0.000000
    10  C    0.000000  -0.000000   0.000000  -0.000000  -0.000000   0.000000
    11  C   -0.000000  -0.000000  -0.000000   0.000000   0.000000  -0.000000
    12  C    0.000000  -0.000000  -0.000000   0.000002  -0.000000   0.000000
    13  C    0.000000   0.000000   0.000001  -0.000087   0.000000  -0.000000
    14  C    0.000574  -0.003431  -0.000007   0.444383  -0.000213  -0.000174
    15  C    0.005350   0.007999   0.008688  -0.061254   0.000003   0.000004
    16  C   -0.039284  -0.042435  -0.064720  -0.002647   0.000000  -0.000001
    17  O    0.000961   0.000912   0.012141  -0.000715  -0.000000   0.000000
    18  C    0.184030   0.181804   0.233563   0.001524  -0.000000   0.000000
    19  F    9.243898  -0.036206  -0.050522  -0.000022   0.000000  -0.000000
    20  F   -0.036206   9.234706  -0.050525  -0.002153  -0.000000  -0.000000
    21  C   -0.050522  -0.050525   5.289126  -0.000073  -0.000000  -0.000000
    22  C   -0.000022  -0.002153  -0.000073   5.143234   0.000917  -0.000728
    23  H    0.000000  -0.000000  -0.000000   0.000917   0.581602  -0.033964
    24  H   -0.000000  -0.000000  -0.000000  -0.000728  -0.033964   0.578542
    25  H   -0.000000  -0.000006  -0.000000  -0.001030  -0.029228  -0.029781
    26  H    0.000000   0.000000   0.000000   0.004991   0.002266   0.001144
    27  H    0.000000   0.000000  -0.000000  -0.000015   0.000001  -0.000001
    28  H   -0.000000   0.000000   0.000000   0.000004  -0.000000   0.000000
    29  H    0.000000  -0.000000  -0.000000   0.000030   0.000000  -0.000000
    30  H    0.000000  -0.000000   0.000000  -0.000034   0.000000  -0.000000
    31  H   -0.000000  -0.000000   0.000000   0.000000  -0.000000   0.000000
    32  H   -0.000000  -0.000000   0.000000   0.000000   0.000000  -0.000000
    33  H   -0.000000   0.000000  -0.000000  -0.000000   0.000000  -0.000000
    34  H   -0.000000  -0.000000  -0.000000   0.000000   0.000000  -0.000000
    35  H    0.000000  -0.000000   0.000000  -0.000000   0.000000  -0.000000
    36  H   -0.000000  -0.000000  -0.000000   0.000050  -0.000000   0.000000
    37  H   -0.000001  -0.000000  -0.000009  -0.000131  -0.000000   0.000000
    38  H   -0.000338   0.000192  -0.000130   0.005256  -0.000000  -0.000000
    39  H    0.002728   0.000522   0.000565  -0.004519  -0.000000   0.000000
    40  H    0.002465   0.000772   0.345821   0.000008  -0.000000  -0.000000
    41  H    0.000774   0.002464   0.346433   0.000000   0.000000   0.000000
    42  H   -0.000277  -0.000282   0.357610  -0.000000   0.000000   0.000000
    43  H    0.000052   0.015321   0.000202   0.333977   0.000074   0.000162
              25         26         27         28         29         30
     1  C    0.367265  -0.005261  -0.000002   0.000003   0.000002  -0.000000
     2  C   -0.035354  -0.045404   0.000455  -0.000205  -0.000207  -0.000012
     3  C    0.003165   0.346205  -0.001539  -0.000130   0.000682  -0.000034
     4  C   -0.000181  -0.032570  -0.036110  -0.031264  -0.029448   0.001054
     5  C    0.000002  -0.007479   0.358904   0.365326   0.364237   0.000002
     6  C   -0.000017   0.004739   0.004246  -0.003983  -0.006065  -0.002334
     7  C   -0.000000  -0.000213   0.000705   0.002778   0.000624  -0.040171
     8  C   -0.000000  -0.000004   0.000100   0.002216  -0.000216   0.369055
     9  N    0.000000  -0.000000  -0.000001  -0.000150   0.000056  -0.056983
    10  C    0.000000   0.000000  -0.000000   0.000005  -0.000001  -0.003408
    11  C   -0.000000  -0.000000  -0.000000   0.000002   0.000003   0.003895
    12  C   -0.000000  -0.000000   0.000001   0.000009  -0.000337  -0.000382
    13  C    0.000000   0.000001   0.000030  -0.000007   0.001051   0.005427
    14  C    0.000412   0.000665  -0.000163   0.000083  -0.000055   0.000587
    15  C    0.000000   0.000011   0.000002   0.000006  -0.000002   0.000250
    16  C    0.000001   0.000000  -0.000000  -0.000000  -0.000000   0.000013
    17  O    0.000000  -0.000000   0.000000   0.000000  -0.000000   0.000000
    18  C    0.000000   0.000000   0.000000  -0.000000  -0.000000   0.000000
    19  F   -0.000000   0.000000   0.000000  -0.000000   0.000000   0.000000
    20  F   -0.000006   0.000000   0.000000   0.000000  -0.000000  -0.000000
    21  C   -0.000000   0.000000  -0.000000   0.000000  -0.000000   0.000000
    22  C   -0.001030   0.004991  -0.000015   0.000004   0.000030  -0.000034
    23  H   -0.029228   0.002266   0.000001  -0.000000   0.000000   0.000000
    24  H   -0.029781   0.001144  -0.000001   0.000000  -0.000000  -0.000000
    25  H    0.574036   0.000044   0.000000  -0.000000  -0.000000   0.000000
    26  H    0.000044   0.610128   0.006031   0.000162   0.000198   0.000001
    27  H    0.000000   0.006031   0.592236  -0.029873  -0.030035  -0.000001
    28  H   -0.000000   0.000162  -0.029873   0.577496  -0.033921   0.000146
    29  H   -0.000000   0.000198  -0.030035  -0.033921   0.571466   0.000039
    30  H    0.000000   0.000001  -0.000001   0.000146   0.000039   0.581289
    31  H    0.000000   0.000000  -0.000000  -0.000002   0.000000   0.004294
    32  H   -0.000000  -0.000000  -0.000000  -0.000000   0.000000   0.000153
    33  H   -0.000000  -0.000000   0.000000   0.000010  -0.000002  -0.000103
    34  H   -0.000000  -0.000000  -0.000000  -0.000000   0.000000  -0.000161
    35  H    0.000000   0.000000   0.000000  -0.000000   0.000003   0.000010
    36  H    0.000000   0.000003  -0.000125  -0.000146   0.005454  -0.000100
    37  H   -0.000000  -0.000000   0.000002   0.000007  -0.000099  -0.000154
    38  H    0.000000   0.000000  -0.000000  -0.000002   0.000002   0.000062
    39  H   -0.000001  -0.000000  -0.000000  -0.000000   0.000000  -0.000008
    40  H    0.000000  -0.000000  -0.000000   0.000000  -0.000000  -0.000000
    41  H    0.000000  -0.000000  -0.000000  -0.000000   0.000000   0.000000
    42  H   -0.000000   0.000000   0.000000   0.000000   0.000000  -0.000000
    43  H    0.005099  -0.000191  -0.000000  -0.000000  -0.000000   0.000001
              31         32         33         34         35         36
     1  C   -0.000000  -0.000000   0.000000  -0.000000  -0.000000  -0.000000
     2  C   -0.000000  -0.000000   0.000000  -0.000000  -0.000000  -0.000013
     3  C   -0.000000   0.000000   0.000000   0.000000  -0.000000  -0.000093
     4  C    0.000003   0.000000  -0.000002   0.000000   0.000001   0.003348
     5  C   -0.000001  -0.000000   0.000002   0.000000  -0.000002  -0.001795
     6  C   -0.000001   0.000002   0.000002  -0.000010  -0.000190  -0.002657
     7  C    0.000430  -0.000211   0.000114  -0.000430   0.003136  -0.047431
     8  C   -0.000783   0.002246   0.001413   0.004607   0.000880  -0.000637
     9  N   -0.043893  -0.044190  -0.057518  -0.060311   0.004551   0.001691
    10  C    0.378112   0.378265   0.371015  -0.003118  -0.000135   0.000023
    11  C    0.002374  -0.000981   0.001555   0.368869  -0.033575  -0.001088
    12  C   -0.000212   0.000403   0.000187  -0.031112   0.357550  -0.043345
    13  C   -0.000002   0.000000   0.000010   0.005301  -0.036373   0.354376
    14  C   -0.000003  -0.000000   0.000000   0.000000  -0.000001  -0.000316
    15  C   -0.000002  -0.000000   0.000000  -0.000000  -0.000002  -0.000166
    16  C    0.000000   0.000000  -0.000000   0.000000   0.000001   0.000031
    17  O    0.000000   0.000000  -0.000000   0.000000  -0.000002   0.000073
    18  C    0.000000  -0.000000  -0.000000   0.000000  -0.000000   0.000000
    19  F   -0.000000  -0.000000  -0.000000  -0.000000   0.000000  -0.000000
    20  F   -0.000000  -0.000000   0.000000  -0.000000  -0.000000  -0.000000
    21  C    0.000000   0.000000  -0.000000  -0.000000   0.000000  -0.000000
    22  C    0.000000   0.000000  -0.000000   0.000000  -0.000000   0.000050
    23  H   -0.000000   0.000000   0.000000   0.000000   0.000000  -0.000000
    24  H    0.000000  -0.000000  -0.000000  -0.000000  -0.000000   0.000000
    25  H    0.000000  -0.000000  -0.000000  -0.000000   0.000000   0.000000
    26  H    0.000000  -0.000000  -0.000000  -0.000000   0.000000   0.000003
    27  H   -0.000000  -0.000000   0.000000  -0.000000   0.000000  -0.000125
    28  H   -0.000002  -0.000000   0.000010  -0.000000  -0.000000  -0.000146
    29  H    0.000000   0.000000  -0.000002   0.000000   0.000003   0.005454
    30  H    0.004294   0.000153  -0.000103  -0.000161   0.000010  -0.000100
    31  H    0.573252  -0.023422  -0.042708   0.000129   0.000003   0.000002
    32  H   -0.023422   0.574952  -0.043647   0.004114   0.000000   0.000002
    33  H   -0.042708  -0.043647   0.619862  -0.000109  -0.000002  -0.000014
    34  H    0.000129   0.004114  -0.000109   0.587983  -0.005271  -0.000096
    35  H    0.000003   0.000000  -0.000002  -0.005271   0.600053   0.000180
    36  H    0.000002   0.000002  -0.000014  -0.000096   0.000180   0.651201
    37  H   -0.000002  -0.000002   0.000002  -0.000138  -0.001772  -0.050803
    38  H    0.000013   0.000001  -0.000001   0.000002  -0.000001   0.000228
    39  H    0.000000   0.000000  -0.000000  -0.000000  -0.000000  -0.000000
    40  H   -0.000000  -0.000000   0.000000  -0.000000  -0.000000  -0.000000
    41  H    0.000000   0.000000  -0.000000  -0.000000   0.000000   0.000000
    42  H   -0.000000  -0.000000   0.000000  -0.000000  -0.000000  -0.000000
    43  H   -0.000000  -0.000000   0.000000  -0.000000   0.000000  -0.000000
              37         38         39         40         41         42
     1  C    0.000000   0.000001   0.000002  -0.000000   0.000000   0.000000
     2  C   -0.000003  -0.000138   0.000118   0.000000  -0.000000  -0.000000
     3  C    0.000024  -0.000025   0.000002  -0.000000  -0.000000  -0.000000
     4  C   -0.000673   0.000718  -0.000141   0.000000   0.000000   0.000000
     5  C    0.000183  -0.000007   0.000002   0.000000   0.000000  -0.000000
     6  C   -0.001687  -0.009332   0.002067  -0.000000   0.000000  -0.000000
     7  C   -0.044003   0.019327   0.000221  -0.000000   0.000000  -0.000000
     8  C    0.000646   0.007346   0.000123  -0.000000   0.000000  -0.000000
     9  N    0.000691  -0.000720  -0.000004   0.000000  -0.000000   0.000000
    10  C   -0.000002  -0.000008   0.000000  -0.000000   0.000000   0.000000
    11  C    0.000699   0.000219  -0.000001  -0.000000  -0.000000  -0.000000
    12  C   -0.037872   0.000636   0.000002  -0.000000   0.000000  -0.000000
    13  C    0.361258  -0.001126   0.000002   0.000000  -0.000000   0.000000
    14  C    0.002858  -0.027595  -0.028336  -0.000038   0.000005   0.000001
    15  C   -0.000327   0.338629   0.348357   0.000017   0.000024  -0.000077
    16  C    0.001059  -0.028268  -0.034823  -0.002382  -0.002028   0.006571
    17  O    0.016185  -0.001439   0.003311   0.001685   0.002070   0.000234
    18  C    0.000229   0.003882   0.006933  -0.017726  -0.018517  -0.025259
    19  F   -0.000001  -0.000338   0.002728   0.002465   0.000774  -0.000277
    20  F   -0.000000   0.000192   0.000522   0.000772   0.002464  -0.000282
    21  C   -0.000009  -0.000130   0.000565   0.345821   0.346433   0.357610
    22  C   -0.000131   0.005256  -0.004519   0.000008   0.000000  -0.000000
    23  H   -0.000000  -0.000000  -0.000000  -0.000000   0.000000   0.000000
    24  H    0.000000  -0.000000   0.000000  -0.000000   0.000000   0.000000
    25  H   -0.000000   0.000000  -0.000001   0.000000   0.000000  -0.000000
    26  H   -0.000000   0.000000  -0.000000  -0.000000  -0.000000   0.000000
    27  H    0.000002  -0.000000  -0.000000  -0.000000  -0.000000   0.000000
    28  H    0.000007  -0.000002  -0.000000   0.000000  -0.000000   0.000000
    29  H   -0.000099   0.000002   0.000000  -0.000000   0.000000   0.000000
    30  H   -0.000154   0.000062  -0.000008  -0.000000   0.000000  -0.000000
    31  H   -0.000002   0.000013   0.000000  -0.000000   0.000000  -0.000000
    32  H   -0.000002   0.000001   0.000000  -0.000000   0.000000  -0.000000
    33  H    0.000002  -0.000001  -0.000000   0.000000  -0.000000   0.000000
    34  H   -0.000138   0.000002  -0.000000  -0.000000  -0.000000  -0.000000
    35  H   -0.001772  -0.000001  -0.000000  -0.000000   0.000000  -0.000000
    36  H   -0.050803   0.000228  -0.000000  -0.000000   0.000000  -0.000000
    37  H    0.584662  -0.001513   0.000020   0.000000  -0.000000   0.000000
    38  H   -0.001513   0.528058  -0.027746   0.000002  -0.000015   0.000002
    39  H    0.000020  -0.027746   0.550950  -0.000029  -0.000020  -0.000013
    40  H    0.000000   0.000002  -0.000029   0.539339  -0.023861  -0.025052
    41  H   -0.000000  -0.000015  -0.000020  -0.023861   0.538869  -0.025055
    42  H    0.000000   0.000002  -0.000013  -0.025052  -0.025055   0.537407
    43  H    0.000001   0.000105   0.001862   0.000012  -0.000004  -0.000003
              43
     1  C   -0.007314
     2  C   -0.028247
     3  C    0.005262
     4  C    0.000582
     5  C    0.000008
     6  C    0.003929
     7  C   -0.000171
     8  C   -0.000003
     9  N   -0.000000
    10  C    0.000000
    11  C   -0.000000
    12  C   -0.000000
    13  C    0.000002
    14  C   -0.041539
    15  C   -0.005579
    16  C   -0.000991
    17  O    0.000043
    18  C   -0.000299
    19  F    0.000052
    20  F    0.015321
    21  C    0.000202
    22  C    0.333977
    23  H    0.000074
    24  H    0.000162
    25  H    0.005099
    26  H   -0.000191
    27  H   -0.000000
    28  H   -0.000000
    29  H   -0.000000
    30  H    0.000001
    31  H   -0.000000
    32  H   -0.000000
    33  H    0.000000
    34  H   -0.000000
    35  H    0.000000
    36  H   -0.000000
    37  H    0.000001
    38  H    0.000105
    39  H    0.001862
    40  H    0.000012
    41  H   -0.000004
    42  H   -0.000003
    43  H    0.582019
 Mulliken charges:
               1
     1  C   -0.483301
     2  C    0.132431
     3  C   -0.197164
     4  C    0.105136
     5  C   -0.471177
     6  C   -0.079380
     7  C   -0.023701
     8  C    0.120648
     9  N   -0.606415
    10  C   -0.239639
    11  C    0.132612
    12  C   -0.150812
    13  C   -0.320009
    14  C    0.105542
    15  C   -0.398830
    16  C    0.362795
    17  O   -0.390400
    18  C    0.479858
    19  F   -0.314181
    20  F   -0.309778
    21  C   -0.428166
    22  C   -0.206615
    23  H    0.148299
    24  H    0.153974
    25  H    0.145573
    26  H    0.114535
    27  H    0.135153
    28  H    0.151428
    29  H    0.156543
    30  H    0.137608
    31  H    0.152419
    32  H    0.152314
    33  H    0.149932
    34  H    0.129749
    35  H    0.110961
    36  H    0.132163
    37  H    0.170665
    38  H    0.193724
    39  H    0.177854
    40  H    0.178968
    41  H    0.178860
    42  H    0.174194
    43  H    0.135630
 Sum of Mulliken charges =  -0.00000
 Mulliken charges with hydrogens summed into heavy atoms:
               1
     1  C   -0.035455
     2  C    0.132431
     3  C   -0.082629
     4  C    0.105136
     5  C   -0.028053
     6  C   -0.079380
     7  C   -0.023701
     8  C    0.258257
     9  N   -0.606415
    10  C    0.215027
    11  C    0.262361
    12  C   -0.039851
    13  C   -0.017182
    14  C    0.105542
    15  C   -0.027252
    16  C    0.362795
    17  O   -0.390400
    18  C    0.479858
    19  F   -0.314181
    20  F   -0.309778
    21  C    0.103856
    22  C   -0.070985
 Electronic spatial extent (au):  <R**2>=           7680.3062
 Charge=             -0.0000 electrons
 Dipole moment (field-independent basis, Debye):
    X=             -1.4229    Y=             -0.0165    Z=             -1.0059  Tot=              1.7426
 Quadrupole moment (field-independent basis, Debye-Ang):
   XX=           -113.9094   YY=           -122.3709   ZZ=           -130.9002
   XY=              2.8202   XZ=              9.9193   YZ=             -0.0083
 Traceless Quadrupole moment (field-independent basis, Debye-Ang):
   XX=              8.4841   YY=              0.0226   ZZ=             -8.5067
   XY=              2.8202   XZ=              9.9193   YZ=             -0.0083
 Octapole moment (field-independent basis, Debye-Ang**2):
  XXX=             31.4516  YYY=             -9.7393  ZZZ=            -20.3574  XYY=             14.6213
  XXY=            -50.8851  XXZ=             -4.0811  XZZ=             -4.1530  YZZ=            -12.2352
  YYZ=              7.8216  XYZ=            -19.4388
 Hexadecapole moment (field-independent basis, Debye-Ang**3):
 XXXX=          -5252.2799 YYYY=          -3405.0650 ZZZZ=           -829.4829 XXXY=            -37.5686
 XXXZ=            211.3524 YYYX=            -27.4952 YYYZ=              1.5823 ZZZX=             -5.8396
 ZZZY=             28.5476 XXYY=          -1378.7180 XXZZ=          -1037.8126 YYZZ=           -747.2362
 XXYZ=            -12.5601 YYXZ=             22.6850 ZZXY=              8.7474
 N-N= 1.820531399304D+03 E-N=-6.041551548200D+03  KE= 1.022369904622D+03
 Unable to Open any file for archive entry.
 1\1\GINC-N2\SP\RB3LYP TD-FC\6-31G\C18H21F2N1O1\HPCMGAC13\13-Jun-2025\0
 \\# td=(50-50,nstates=3) b3lyp/6-31g\\[No Title]\\0,1\C,0,2.23485,4.18
 8539,-0.319039\C,0,1.189025,3.100552,-0.208762\C,0,-0.125829,3.404139,
 0.178448\C,0,-1.109795,2.416018,0.302956\C,0,-2.514524,2.808462,0.7118
 5\C,0,-0.78284,1.0609,0.029185\C,0,-1.818967,-0.007049,0.197748\C,0,-2
 .617888,-0.371391,-0.830267\N,0,-3.581328,-1.383355,-0.748351\C,0,-4.5
 56057,-1.573498,-1.81635\C,0,-3.704177,-2.073156,0.467626\C,0,-2.95849
 1,-1.784585,1.549087\C,0,-1.939644,-0.662538,1.57564\C,0,0.537904,0.74
 9641,-0.362868\C,0,0.954874,-0.682734,-0.686692\C,0,1.87716,-1.27264,0
 .360116\O,0,1.572475,-1.427839,1.549796\C,0,3.271923,-1.71237,-0.11401
 5\F,0,3.063367,-2.647501,-1.167871\F,0,3.881785,-0.578693,-0.73262\C,0
 ,4.200736,-2.290722,0.911376\C,0,1.501921,1.765498,-0.479442\H,0,1.879
 012,5.027161,-0.929985\H,0,2.493117,4.595788,0.667498\H,0,3.15652,3.81
 0085,-0.772019\H,0,-0.392022,4.437754,0.38721\H,0,-2.569044,3.878452,0
 .935588\H,0,-3.241331,2.590588,-0.079368\H,0,-2.846046,2.261081,1.6020
 2\H,0,-2.535074,0.102466,-1.803372\H,0,-4.095828,-1.34273,-2.782053\H,
 0,-4.880506,-2.618589,-1.839019\H,0,-5.447423,-0.938377,-1.698774\H,0,
 -4.432777,-2.876642,0.464668\H,0,-3.080189,-2.386286,2.444177\H,0,-2.2
 09769,0.095514,2.335179\H,0,-0.951987,-1.032326,1.894028\H,0,0.06167,-
 1.316795,-0.729693\H,0,1.439073,-0.72585,-1.665704\H,0,4.387119,-1.560
 088,1.700636\H,0,3.751941,-3.177294,1.362961\H,0,5.144587,-2.56162,0.4
 32963\H,0,2.510993,1.501271,-0.782012\\Version=ES64L-G16RevC.02\State=
 1-A\HF=-1027.9442987\RMSD=8.738e-09\PG=C01 [X(C18H21F2N1O1)]\\@
 The archive entry for this job was punched.


 THE ONLY EXISTING THINGS ARE ATOMS AND EMPTY SPACE;
 ALL ELSE IS MERE OPINION. -- DEMOCRITUS OF ABDERA D. 370 B.C.
 EXPERIMENTS ARE THE ONLY MEANS OF KNOWLEDGE AT OUR DISPOSAL
 THE REST IS POETRY, IMAGINATION. -- MAX PLANCK
 Job cpu time:       0 days  0 hours 23 minutes  3.4 seconds.
 Elapsed time:       0 days  0 hours  1 minutes 29.6 seconds.
 File lengths (MBytes):  RWF=    607 Int=      0 D2E=      0 Chk=     19 Scr=      2
 Normal termination of Gaussian 16 at Fri Jun 13 11:25:35 2025.
