 Entering Gaussian System, Link 0=g16
 Input=M1566.gjf
 Output=M1566.log
 Initial command:
 /hpc/softwares/Gaussian/g16/l1.exe "/hpc/home/hpcmgac13/pbs.11118.admin1.x8z/Gau-185020.inp" -scrdir="/hpc/home/hpcmgac13/pbs.11118.admin1.x8z/"
 Default linda workers: n2
 Default is to use  16 SMP processors on each worker.
 Entering Link 1 = /hpc/softwares/Gaussian/g16/l1.exe PID=    185021.
  
 Copyright (c) 1988-2021, Gaussian, Inc.  All Rights Reserved.
  
 This is part of the Gaussian(R) 16 program.  It is based on
 the Gaussian(R) 09 system (copyright 2009, Gaussian, Inc.),
 the Gaussian(R) 03 system (copyright 2003, Gaussian, Inc.),
 the Gaussian(R) 98 system (copyright 1998, Gaussian, Inc.),
 the Gaussian(R) 94 system (copyright 1995, Gaussian, Inc.),
 the Gaussian 92(TM) system (copyright 1992, Gaussian, Inc.),
 the Gaussian 90(TM) system (copyright 1990, Gaussian, Inc.),
 the Gaussian 88(TM) system (copyright 1988, Gaussian, Inc.),
 the Gaussian 86(TM) system (copyright 1986, Carnegie Mellon
 University), and the Gaussian 82(TM) system (copyright 1983,
 Carnegie Mellon University). Gaussian is a federally registered
 trademark of Gaussian, Inc.
  
 This software contains proprietary and confidential information,
 including trade secrets, belonging to Gaussian, Inc.
  
 This software is provided under written license and may be
 used, copied, transmitted, or stored only in accord with that
 written license.
  
 The following legend is applicable only to US Government
 contracts under FAR:
  
                    RESTRICTED RIGHTS LEGEND
  
 Use, reproduction and disclosure by the US Government is
 subject to restrictions as set forth in subparagraphs (a)
 and (c) of the Commercial Computer Software - Restricted
 Rights clause in FAR 52.227-19.
  
 Gaussian, Inc.
 340 Quinnipiac St., Bldg. 40, Wallingford CT 06492
  
  
 ---------------------------------------------------------------
 Warning -- This program may not be used in any manner that
 competes with the business of Gaussian, Inc. or will provide
 assistance to any competitor of Gaussian, Inc.  The licensee
 of this program is prohibited from giving any competitor of
 Gaussian, Inc. access to this program.  By using this program,
 the user acknowledges that Gaussian, Inc. is engaged in the
 business of creating and licensing software in the field of
 computational chemistry and represents and warrants to the
 licensee that it is not a competitor of Gaussian, Inc. and that
 it will not use this program in any manner prohibited above.
 ---------------------------------------------------------------
  

 Cite this work as:
 Gaussian 16, Revision C.02,
 M. J. Frisch, G. W. Trucks, H. B. Schlegel, G. E. Scuseria, 
 M. A. Robb, J. R. Cheeseman, G. Scalmani, V. Barone, 
 G. A. Petersson, H. Nakatsuji, X. Li, M. Caricato, A. V. Marenich, 
 J. Bloino, B. G. Janesko, R. Gomperts, B. Mennucci, H. P. Hratchian, 
 J. V. Ortiz, A. F. Izmaylov, J. L. Sonnenberg, D. Williams-Young, 
 F. Ding, F. Lipparini, F. Egidi, J. Goings, B. Peng, A. Petrone, 
 T. Henderson, D. Ranasinghe, V. G. Zakrzewski, J. Gao, N. Rega, 
 G. Zheng, W. Liang, M. Hada, M. Ehara, K. Toyota, R. Fukuda, 
 J. Hasegawa, M. Ishida, T. Nakajima, Y. Honda, O. Kitao, H. Nakai, 
 T. Vreven, K. Throssell, J. A. Montgomery, Jr., J. E. Peralta, 
 F. Ogliaro, M. J. Bearpark, J. J. Heyd, E. N. Brothers, K. N. Kudin, 
 V. N. Staroverov, T. A. Keith, R. Kobayashi, J. Normand, 
 K. Raghavachari, A. P. Rendell, J. C. Burant, S. S. Iyengar, 
 J. Tomasi, M. Cossi, J. M. Millam, M. Klene, C. Adamo, R. Cammi, 
 J. W. Ochterski, R. L. Martin, K. Morokuma, O. Farkas, 
 J. B. Foresman, and D. J. Fox, Gaussian, Inc., Wallingford CT, 2019.
 
 ******************************************
 Gaussian 16:  ES64L-G16RevC.02  7-Dec-2021
                13-Jun-2025 
 ******************************************
 SetLPE:    new flags="-opt 'Tsnet.Node.lindarsharg: ssh'  -nodelist 'n2.head.cm.mguif.local' -env GAUSS_MDEF=4294967296 -env GAUSS_EXEDIR="/hpc/softwares/Gaussian/g16/bsd:/hpc/softwares/Gaussian/g16""
 Will use up to    1 processors via Linda.
 ----------------------------------
 # td=(50-50,nstates=3) b3lyp/6-31g
 ----------------------------------
 1/38=1,172=1/1;
 2/12=2,17=6,18=5,40=1/2;
 3/5=1,6=6,11=9,25=1,30=1,74=-5/1,2,3,8;
 4//1;
 5/5=2,38=5/2;
 8/6=1,10=2,108=3/1;
 9/41=3,42=1,48=2,70=2/14;
 6/7=2,8=2,9=2,10=2/1;
 99/5=1,9=1/99;
 ----------
 [No Title]
 ----------
 Symbolic Z-matrix:
 Charge =  0 Multiplicity = 1
 C                     1.21841   4.95412  -0.34062 
 C                     1.40455   3.46254  -0.16693 
 C                     2.66008   2.86635  -0.35876 
 C                     2.85831   1.48761  -0.21864 
 C                     4.24007   0.91685  -0.46144 
 C                     1.76178   0.64893   0.12317 
 C                     1.96488  -0.82273   0.30139 
 C                     1.48836  -1.69726  -0.61592 
 N                     1.66405  -3.08143  -0.53334 
 C                     0.98505  -3.97612  -1.46537 
 C                     2.36744  -3.59216   0.56477 
 C                     2.87129  -2.80978   1.53666 
 C                     2.70977  -1.30276   1.54956 
 C                     0.49232   1.24274   0.31451 
 C                    -0.72856   0.42626   0.696 
 C                    -1.63138   0.05584  -0.47672 
 O                    -1.16663  -0.17591  -1.61605 
 C                    -3.07729  -0.08085  -0.25616 
 C                    -4.00429  -0.46991  -1.19597 
 C                    -5.34606  -0.53321  -0.71285 
 C                    -5.46878  -0.19483   0.60849 
 S                    -3.89216   0.23327   1.34315 
 C                     0.33353   2.631     0.17045 
 H                     1.98519   5.521     0.20117 
 H                     1.28867   5.24518  -1.39732 
 H                     0.23904   5.27886   0.02551 
 H                     3.50707   3.49127  -0.63361 
 H                     4.82795   1.58233  -1.10199 
 H                     4.80007   0.79008   0.4751 
 H                     4.18613  -0.06532  -0.94113 
 H                     0.92962  -1.34806  -1.47657 
 H                     0.84241  -3.46679  -2.42205 
 H                     1.59755  -4.8665   -1.64157 
 H                    -0.00051  -4.30058  -1.09883 
 H                     2.49196  -4.66969   0.56908 
 H                     3.42984  -3.27233   2.34438 
 H                     2.17075  -0.97193   2.4574 
 H                     3.69555  -0.81255   1.6263 
 H                    -0.41423  -0.52288   1.15299 
 H                    -1.31035   0.96654   1.45127 
 H                    -3.7061   -0.70003  -2.21078 
 H                    -6.19021  -0.81962  -1.32764 
 H                    -6.35841  -0.15885   1.21831 
 H                    -0.64956   3.06903   0.32768 
 
                          Input orientation:                          
 ---------------------------------------------------------------------
 Center     Atomic      Atomic             Coordinates (Angstroms)
 Number     Number       Type             X           Y           Z
 ---------------------------------------------------------------------
      1          6           0        1.218411    4.954117   -0.340624
      2          6           0        1.404550    3.462538   -0.166931
      3          6           0        2.660078    2.866354   -0.358757
      4          6           0        2.858305    1.487605   -0.218642
      5          6           0        4.240071    0.916852   -0.461439
      6          6           0        1.761781    0.648928    0.123166
      7          6           0        1.964879   -0.822726    0.301386
      8          6           0        1.488356   -1.697256   -0.615919
      9          7           0        1.664050   -3.081433   -0.533335
     10          6           0        0.985047   -3.976121   -1.465373
     11          6           0        2.367437   -3.592156    0.564772
     12          6           0        2.871287   -2.809779    1.536660
     13          6           0        2.709771   -1.302756    1.549563
     14          6           0        0.492315    1.242738    0.314513
     15          6           0       -0.728560    0.426257    0.696000
     16          6           0       -1.631380    0.055843   -0.476722
     17          8           0       -1.166630   -0.175913   -1.616050
     18          6           0       -3.077290   -0.080849   -0.256156
     19          6           0       -4.004291   -0.469906   -1.195972
     20          6           0       -5.346058   -0.533208   -0.712852
     21          6           0       -5.468782   -0.194829    0.608492
     22         16           0       -3.892155    0.233265    1.343147
     23          6           0        0.333529    2.631004    0.170451
     24          1           0        1.985193    5.520996    0.201165
     25          1           0        1.288671    5.245184   -1.397316
     26          1           0        0.239040    5.278861    0.025511
     27          1           0        3.507066    3.491272   -0.633606
     28          1           0        4.827950    1.582328   -1.101988
     29          1           0        4.800066    0.790082    0.475102
     30          1           0        4.186130   -0.065316   -0.941127
     31          1           0        0.929617   -1.348057   -1.476570
     32          1           0        0.842412   -3.466791   -2.422053
     33          1           0        1.597554   -4.866498   -1.641565
     34          1           0       -0.000509   -4.300576   -1.098832
     35          1           0        2.491959   -4.669688    0.569081
     36          1           0        3.429838   -3.272329    2.344377
     37          1           0        2.170753   -0.971928    2.457404
     38          1           0        3.695545   -0.812547    1.626295
     39          1           0       -0.414230   -0.522883    1.152988
     40          1           0       -1.310350    0.966544    1.451267
     41          1           0       -3.706100   -0.700029   -2.210783
     42          1           0       -6.190214   -0.819616   -1.327643
     43          1           0       -6.358413   -0.158845    1.218307
     44          1           0       -0.649556    3.069027    0.327676
 ---------------------------------------------------------------------
                    Distance matrix (angstroms):
                    1          2          3          4          5
     1  C    0.000000
     2  C    1.513151   0.000000
     3  C    2.537220   1.403062   0.000000
     4  C    3.836774   2.452843   1.399955   0.000000
     5  C    5.044258   3.821967   2.511470   1.514591   0.000000
     6  C    4.364058   2.850995   2.440526   1.422173   2.560365
     7  C    5.860146   4.347042   3.811614   2.531061   2.963871
     8  C    6.662539   5.179970   4.718644   3.489689   3.798600
     9  N    8.050205   6.559356   6.033135   4.733010   4.756820
    10  C    9.003814   7.562776   7.130904   5.908954   5.961900
    11  C    8.670570   7.157601   6.530765   5.163203   4.989090
    12  C    8.156855   6.662995   5.987963   4.642065   4.444519
    13  C    6.704135   5.230486   4.585372   3.306770   3.363422
    14  C    3.838066   2.447749   2.790810   2.437647   3.841091
    15  C    5.036547   3.809700   4.306908   3.850796   5.125197
    16  C    5.668591   4.573665   5.131228   4.719515   5.934265
    17  O    5.799340   4.685001   5.047759   4.573854   5.635573
    18  C    6.618993   5.714057   6.450886   6.139442   7.387917
    19  C    7.578144   6.765989   7.499692   7.202933   8.392386
    20  C    8.563968   7.863506   8.705206   8.464012   9.698441
    21  C    8.492998   7.824341   8.739838   8.535521   9.830687
    22  S    7.158171   6.384640   7.263704   7.041396   8.358045
    23  C    2.537926   1.397269   2.397557   2.798794   4.312618
    24  H    1.096741   2.170228   2.795730   4.148109   5.169300
    25  H    1.098296   2.169125   2.935676   4.239389   5.321756
    26  H    1.094843   2.166674   3.439372   4.614519   5.939065
    27  H    2.731977   2.153877   1.087866   2.146571   2.682271
    28  H    4.997740   4.016116   2.626934   2.160735   1.094880
    29  H    5.552733   4.368496   3.096090   2.176753   1.098533
    30  H    5.861968   4.558763   3.355991   2.167180   1.094378
    31  H    6.410240   5.008247   4.690977   3.652834   4.137561
    32  H    8.682477   7.308705   6.904334   5.784884   5.882552
    33  H    9.913661   8.460770   7.910218   6.632407   6.467050
    34  H    9.365361   7.944090   7.680581   6.515412   6.753543
    35  H    9.750236   8.237553   7.594806   6.218277   5.943677
    36  H    8.931632   7.467723   6.751510   5.436238   5.106693
    37  H    6.622230   5.209481   4.785667   3.699088   4.045888
    38  H    6.577186   5.171138   4.306615   3.065202   2.765133
    39  H    5.907108   4.575339   4.819094   4.078347   5.132419
    40  H    5.050371   4.027311   4.759177   4.520817   5.870953
    41  H    7.727721   6.900945   7.528433   7.200401   8.295550
    42  H    9.444465   8.795711   9.636015   9.403661  10.609264
    43  H    9.272589   8.677378   9.642206   9.472250  10.784551
    44  H    2.736693   2.149148   3.386140   3.886444   5.400279
                    6          7          8          9         10
     6  C    0.000000
     7  C    1.496254   0.000000
     8  C    2.474992   1.354003   0.000000
     9  N    3.788949   2.426729   1.397725   0.000000
    10  C    4.951550   3.745051   2.483570   1.459523   0.000000
    11  C    4.306812   2.810902   2.399471   1.400511   2.485944
    12  C    3.897643   2.509155   2.789947   2.411658   3.732353
    13  C    2.596606   1.530764   2.517300   2.931840   4.383080
    14  C    1.414485   2.536683   3.240581   4.559634   5.535997
    15  C    2.565057   2.995045   3.338436   4.420377   5.195086
    16  C    3.496449   3.782911   3.581269   4.550337   4.907123
    17  O    3.504401   3.728442   3.219270   4.198460   4.369668
    18  C    4.908469   5.126861   4.856678   5.617886   5.756556
    19  C    6.019925   6.164216   5.657917   6.276086   6.104065
    20  C    7.253809   7.386630   6.933514   7.461052   7.245884
    21  C    7.295787   7.466451   7.222066   7.779045   7.762151
    22  S    5.798976   6.041956   6.042744   6.736455   7.028073
    23  C    2.443515   3.821871   4.548169   5.907414   6.837726
    24  H    4.877811   6.344546   7.281321   8.639700   9.693961
    25  H    4.864285   6.337379   6.989129   8.379733   9.226553
    26  H    4.874890   6.346967   7.116069   8.499263   9.403933
    27  H    3.420182   4.675803   5.567434   6.826948   7.925552
    28  H    3.431272   3.993860   4.705829   5.664300   6.767297
    29  H    3.061856   3.266437   4.283060   5.083323   6.405974
    30  H    2.742322   2.655459   3.169696   3.952739   5.080961
    31  H    2.690651   2.123409   1.083905   2.105630   2.628672
    32  H    4.925700   3.958299   2.609716   2.095434   1.093160
    33  H    5.793200   4.501342   3.332862   2.102154   1.094979
    34  H    5.394120   4.233060   3.037630   2.139358   1.100429
    35  H    5.386991   3.892119   3.353624   2.103166   2.625038
    36  H    4.805460   3.510053   3.874734   3.381667   4.581105
    37  H    2.871080   2.170958   3.230647   3.694764   5.081265
    38  H    2.852148   2.179608   3.268320   3.733473   5.187814
    39  H    2.677442   2.544659   2.850968   3.702582   4.553970
    40  H    3.361952   3.905232   4.381991   5.401094   6.181066
    41  H    6.096288   6.203713   5.524529   6.109290   5.770206
    42  H    8.215576   8.316206   7.761265   8.211955   7.840081
    43  H    8.233431   8.399921   8.203833   8.716059   8.700583
    44  H    3.422463   4.688465   5.308342   6.627388   7.451246
                   11         12         13         14         15
    11  C    0.000000
    12  C    1.345565   0.000000
    13  C    2.515623   1.515708   0.000000
    14  C    5.191812   4.855517   3.594718   0.000000
    15  C    5.074452   4.912997   3.942103   1.517468   0.000000
    16  C    5.512091   5.704341   4.979680   2.558291   1.525637
    17  O    5.377391   5.760348   5.130045   2.914059   2.429010
    18  C    6.530563   6.785780   6.184153   3.849627   2.584626
    19  C    7.310785   7.759888   7.301385   5.043231   3.887554
    20  C    8.395683   8.818608   8.402803   6.188381   4.922065
    21  C    8.541081   8.789551   8.306735   6.139031   4.781538
    22  S    7.377141   7.419010   6.781401   4.615268   3.234869
    23  C    6.558963   6.157017   4.798223   1.404724   2.503027
    24  H    9.128409   8.483544   6.993338   4.532662   5.793590
    25  H    9.116584   8.717529   7.319777   4.425394   5.627899
    26  H    9.138699   8.639351   7.193395   4.054375   4.993353
    27  H    7.273913   6.694588   5.327721   3.878603   5.394692
    28  H    5.967202   5.484669   4.454337   4.573787   5.953492
    29  H    5.012957   4.219727   3.147026   4.334444   5.544986
    30  H    4.244288   3.924324   3.148719   4.114840   5.203461
    31  H    3.357139   3.871210   3.511194   3.179847   3.258497
    32  H    3.355971   4.496600   4.893241   5.458115   5.229343
    33  H    2.661689   3.994196   4.911271   6.509267   6.236046
    34  H    2.979363   4.173189   4.831826   5.741842   5.108271
    35  H    1.084712   2.130577   3.513548   6.246612   6.029636
    36  H    2.097136   1.085513   2.242642   5.756320   5.804219
    37  H    3.238261   2.171685   1.106419   3.509114   3.669262
    38  H    3.258363   2.162492   1.103605   4.025624   4.687514
    39  H    4.183791   4.021408   3.244203   2.154595   1.099322
    40  H    5.923997   5.635068   4.617441   2.148975   1.095818
    41  H    7.277084   7.858524   7.461024   5.270498   4.310876
    42  H    9.192475   9.709572   9.365974   7.183744   5.956257
    43  H    9.399744   9.608130   9.146050   7.050798   5.684223
    44  H    7.316408   6.958329   5.647174   2.153921   2.669483
                   16         17         18         19         20
    16  C    0.000000
    17  O    1.252107   0.000000
    18  C    1.469010   2.347120   0.000000
    19  C    2.534648   2.883612   1.376209   0.000000
    20  C    3.768497   4.290809   2.358073   1.427498   0.000000
    21  C    3.995770   4.843290   2.545553   2.340190   1.369493
    22  S    2.907663   4.043855   1.822208   2.637072   2.632194
    23  C    3.303204   3.649773   4.378336   5.504492   6.561263
    24  H    6.588401   6.759514   7.564294   8.585850   9.551757
    25  H    6.025235   5.955220   6.980723   7.792191   8.824848
    26  H    5.570514   5.867298   6.309031   7.248876   8.094359
    27  H    6.183075   6.021368   7.500417   8.510445   9.725252
    28  H    6.666638   6.268226   8.122463   9.068020  10.398911
    29  H    6.542826   6.395899   7.959020   9.049683  10.300785
    30  H    5.837275   5.396276   7.295663   8.204367   9.546394
    31  H    3.086962   2.405749   4.376132   5.019296   6.374272
    32  H    4.723654   3.939006   5.614248   5.828818   7.058643
    33  H    6.001026   5.444534   6.831981   7.135071   8.237333
    34  H    4.693096   4.317430   5.289875   5.541998   6.551102
    35  H    6.358166   6.193067   7.263263   7.934409   8.954794
    36  H    6.682160   6.811776   7.700067   8.697926   9.688436
    37  H    4.911377   5.325861   5.974896   7.192381   8.169789
    38  H    5.792488   5.878678   7.067552   8.207927   9.343459
    39  H    2.114789   2.890340   3.045155   4.290566   5.272987
    40  H    2.156288   3.276324   2.671030   4.040864   4.818673
    41  H    2.807628   2.660322   2.144610   1.082458   2.227350
    42  H    4.719477   5.072862   3.374042   2.217632   1.082865
    43  H    5.026336   5.915106   3.598040   3.386354   2.212326
    44  H    3.269604   3.817731   4.019511   5.108796   6.009653
                   21         22         23         24         25
    21  C    0.000000
    22  S    1.791294   0.000000
    23  C    6.468696   4.998077   0.000000
    24  H    9.402038   7.987956   3.328812   0.000000
    25  H    8.903942   7.711707   3.194390   1.765321   0.000000
    26  H    7.929715   6.652892   2.653504   1.771591   1.768416
    27  H    9.782433   8.322898   3.384953   2.670715   2.929289
    28  H   10.588046   9.156358   4.787342   5.029173   5.101983
    29  H   10.316835   8.753185   4.840636   5.511814   5.973590
    30  H    9.779336   8.400342   4.832006   6.111942   6.066695
    31  H    6.827659   5.805245   4.347519   7.149330   6.603486
    32  H    7.727943   7.091070   6.645536   9.432260   8.783379
    33  H    8.764722   8.065544   7.816246  10.556796  10.119347
    34  H    7.047987   6.454757   7.054747  10.104270   9.637044
    35  H    9.132322   8.086720   7.623505  10.209908  10.179357
    36  H    9.574432   8.179440   7.011592   9.165311   9.546355
    37  H    7.898408   6.281155   4.646145   6.876271   7.368135
    38  H    9.241341   7.664665   5.027989   6.713424   7.185497
    39  H    5.094369   3.564251   3.386964   6.572037   6.532574
    40  H    4.399047   2.686095   2.667069   5.759027   5.759869
    41  H    3.363122   3.679140   5.751927   8.769804   7.807370
    42  H    2.158574   3.677330   7.530623  10.458389   9.629142
    43  H    1.079172   2.500353   7.325527  10.144503   9.722289
    44  H    5.827225   4.425740   1.087676   3.601397   3.386441
                   26         27         28         29         30
    26  H    0.000000
    27  H    3.782843   0.000000
    28  H    5.999475   2.368160   0.000000
    29  H    6.415156   3.193354   1.765119   0.000000
    30  H    6.713727   3.633871   1.775539   1.764746   0.000000
    31  H    6.830021   5.547336   4.891264   4.833326   3.540763
    32  H    9.101706   7.662478   6.566634   6.494421   4.994359
    33  H   10.370777   8.632180   7.232839   6.836173   5.499335
    34  H    9.648168   8.557594   7.610689   7.172000   5.957369
    35  H   10.214927   8.311328   6.880191   5.928345   5.133341
    36  H    9.417069   7.390578   6.115541   4.677061   4.653111
    37  H    6.979827   5.591085   5.123884   3.734633   4.053850
    38  H    7.184371   4.864724   3.802801   2.261334   2.718581
    39  H    5.946276   5.889136   6.082539   5.419621   5.075234
    40  H    4.798903   5.824813   6.676603   6.190414   6.082728
    41  H    7.504150   8.490245   8.903291   9.043742   8.018864
    42  H    8.964249  10.634974  11.279193  11.252878  10.410902
    43  H    8.632369  10.680853  11.556391  11.223389  10.763795
    44  H    2.400890   4.287174   5.852972   5.908782   5.900663
                   31         32         33         34         35
    31  H    0.000000
    32  H    2.321762   0.000000
    33  H    3.585079   1.771604   0.000000
    34  H    3.118523   1.776690   1.780065   0.000000
    35  H    4.202241   3.621443   2.392833   3.021684   0.000000
    36  H    4.955155   5.426918   4.667588   4.967923   2.446202
    37  H    4.142227   5.638965   5.683114   5.333019   4.164417
    38  H    4.191050   5.619119   5.613822   5.766583   4.176584
    39  H    3.066172   4.798610   5.542905   4.417332   5.097340
    40  H    4.352822   6.268289   7.214284   5.996769   6.855867
    41  H    4.738025   5.328092   6.768472   5.285052   7.867768
    42  H    7.140968   7.593622   8.782092   7.105061   9.685078
    43  H    7.860787   8.720471   9.676687   7.933852   9.954812
    44  H    5.025905   7.245957   8.479385   7.534403   8.355543
                   36         37         38         39         40
    36  H    0.000000
    37  H    2.624865   0.000000
    38  H    2.576193   1.743885   0.000000
    39  H    4.873984   2.930065   4.147068   0.000000
    40  H    6.421454   4.109509   5.315523   1.763631   0.000000
    41  H    8.848041   7.510213   8.337876   4.709856   4.682702
    42  H   10.585128   9.179082  10.317656   6.293137   5.892858
    43  H   10.333038   8.656970  10.083444   5.955678   5.177230
    44  H    7.805212   5.368352   5.969333   3.693012   2.473770
                   41         42         43         44
    41  H    0.000000
    42  H    2.639140   0.000000
    43  H    4.368787   2.635673   0.000000
    44  H    5.476497   6.968538   6.618416   0.000000
 Stoichiometry    C20H21NOS
 Framework group  C1[X(C20H21NOS)]
 Deg. of freedom   126
 Full point group                 C1      NOp   1
 Largest Abelian subgroup         C1      NOp   1
 Largest concise Abelian subgroup C1      NOp   1
                         Standard orientation:                         
 ---------------------------------------------------------------------
 Center     Atomic      Atomic             Coordinates (Angstroms)
 Number     Number       Type             X           Y           Z
 ---------------------------------------------------------------------
      1          6           0        1.218411    4.954117   -0.340624
      2          6           0        1.404550    3.462538   -0.166931
      3          6           0        2.660078    2.866354   -0.358757
      4          6           0        2.858305    1.487605   -0.218642
      5          6           0        4.240071    0.916852   -0.461439
      6          6           0        1.761781    0.648928    0.123166
      7          6           0        1.964879   -0.822726    0.301386
      8          6           0        1.488356   -1.697256   -0.615919
      9          7           0        1.664050   -3.081433   -0.533335
     10          6           0        0.985047   -3.976121   -1.465373
     11          6           0        2.367437   -3.592156    0.564772
     12          6           0        2.871287   -2.809779    1.536660
     13          6           0        2.709771   -1.302756    1.549563
     14          6           0        0.492315    1.242738    0.314513
     15          6           0       -0.728560    0.426257    0.696000
     16          6           0       -1.631380    0.055843   -0.476722
     17          8           0       -1.166630   -0.175913   -1.616050
     18          6           0       -3.077290   -0.080849   -0.256156
     19          6           0       -4.004291   -0.469906   -1.195972
     20          6           0       -5.346058   -0.533208   -0.712852
     21          6           0       -5.468782   -0.194829    0.608492
     22         16           0       -3.892155    0.233265    1.343147
     23          6           0        0.333529    2.631004    0.170451
     24          1           0        1.985193    5.520996    0.201165
     25          1           0        1.288671    5.245184   -1.397316
     26          1           0        0.239040    5.278861    0.025511
     27          1           0        3.507066    3.491272   -0.633606
     28          1           0        4.827950    1.582328   -1.101988
     29          1           0        4.800066    0.790082    0.475102
     30          1           0        4.186130   -0.065316   -0.941127
     31          1           0        0.929617   -1.348057   -1.476570
     32          1           0        0.842412   -3.466791   -2.422053
     33          1           0        1.597554   -4.866498   -1.641565
     34          1           0       -0.000509   -4.300576   -1.098832
     35          1           0        2.491959   -4.669688    0.569081
     36          1           0        3.429838   -3.272329    2.344377
     37          1           0        2.170753   -0.971928    2.457404
     38          1           0        3.695545   -0.812547    1.626295
     39          1           0       -0.414230   -0.522883    1.152988
     40          1           0       -1.310350    0.966544    1.451267
     41          1           0       -3.706100   -0.700029   -2.210783
     42          1           0       -6.190214   -0.819616   -1.327643
     43          1           0       -6.358413   -0.158845    1.218307
     44          1           0       -0.649556    3.069027    0.327676
 ---------------------------------------------------------------------
 Rotational constants (GHZ):           0.2783849           0.1734494           0.1214586
 Standard basis: 6-31G (6D, 7F)
 There are   253 symmetry adapted cartesian basis functions of A   symmetry.
 There are   253 symmetry adapted basis functions of A   symmetry.
   253 basis functions,   614 primitive gaussians,   253 cartesian basis functions
    86 alpha electrons       86 beta electrons
       nuclear repulsion energy      1965.7674063591 Hartrees.
 NAtoms=   44 NActive=   44 NUniq=   44 SFac= 1.00D+00 NAtFMM=   60 NAOKFM=F Big=F
 Integral buffers will be    131072 words long.
 Regular integral format.
 Two-electron integral symmetry is turned on.
 One-electron integrals computed using PRISM.
 NBasis=   253 RedAO= T EigKep=  4.29D-04  NBF=   253
 NBsUse=   253 1.00D-06 EigRej= -1.00D+00 NBFU=   253
 ExpMin= 1.17D-01 ExpMax= 2.19D+04 ExpMxC= 3.30D+03 IAcc=3 IRadAn=         5 AccDes= 0.00D+00
 Harris functional with IExCor=  402 and IRadAn=       5 diagonalized for initial guess.
 HarFok:  IExCor=  402 AccDes= 0.00D+00 IRadAn=         5 IDoV= 1 UseB2=F ITyADJ=14
 ICtDFT=  3500011 ScaDFX=  1.000000  1.000000  1.000000  1.000000
 FoFCou: FMM=F IPFlag=           0 FMFlag=      100000 FMFlg1=           0
         NFxFlg=           0 DoJE=T BraDBF=F KetDBF=T FulRan=T
         wScrn=  0.000000 ICntrl=       500 IOpCl=  0 I1Cent=   200000004 NGrid=           0
         NMat0=    1 NMatS0=      1 NMatT0=    0 NMatD0=    1 NMtDS0=    0 NMtDT0=    0
 Petite list used in FoFCou.
 Requested convergence on RMS density matrix=1.00D-08 within 128 cycles.
 Requested convergence on MAX density matrix=1.00D-06.
 Requested convergence on             energy=1.00D-06.
 No special actions if energy rises.
 Integral accuracy reduced to 1.0D-05 until final iterations.
 Initial convergence to 1.0D-05 achieved.  Increase integral accuracy.
 SCF Done:  E(RB3LYP) =  -1302.64178659     A.U. after   16 cycles
            NFock= 16  Conv=0.50D-08     -V/T= 2.0045
 DoSCS=F DFT=T ScalE2(SS,OS)=  1.000000  1.000000
 ExpMin= 1.17D-01 ExpMax= 2.19D+04 ExpMxC= 3.30D+03 IAcc=3 IRadAn=         5 AccDes= 0.00D+00
 HarFok:  IExCor=  205 AccDes= 0.00D+00 IRadAn=         5 IDoV=-2 UseB2=F ITyADJ=14
 ICtDFT= 12500011 ScaDFX=  1.000000  1.000000  1.000000  1.000000
 GSVD:  LWork=        -945 too small for GESVD, short by        4050 words or        4050 for optimal perf.
 Range of M.O.s used for correlation:    28   253
 NBasis=   253 NAE=    86 NBE=    86 NFC=    27 NFV=     0
 NROrb=    226 NOA=    59 NOB=    59 NVA=   167 NVB=   167

 **** Warning!!: The largest alpha MO coefficient is  0.13746370D+02


 **** Warning!!: The smallest alpha delta epsilon is  0.88305588D-01

 Keep R1, R2, and R3 ints in memory in canonical form, NReq=1671278105.
 Orbital symmetries:
       Occupied  (A) (A) (A) (A) (A) (A) (A) (A) (A) (A) (A) (A)
                 (A) (A) (A) (A) (A) (A) (A) (A) (A) (A) (A) (A)
                 (A) (A) (A) (A) (A) (A) (A) (A) (A) (A) (A) (A)
                 (A) (A) (A) (A) (A) (A) (A) (A) (A) (A) (A) (A)
                 (A) (A) (A) (A) (A) (A) (A) (A) (A) (A) (A) (A)
                 (A) (A) (A) (A) (A) (A) (A) (A) (A) (A) (A) (A)
                 (A) (A) (A) (A) (A) (A) (A) (A) (A) (A) (A) (A)
                 (A) (A)
       Virtual   (A) (A) (A) (A) (A) (A) (A) (A) (A) (A) (A) (A)
                 (A) (A) (A) (A) (A) (A) (A) (A) (A) (A) (A) (A)
                 (A) (A) (A) (A) (A) (A) (A) (A) (A) (A) (A) (A)
                 (A) (A) (A) (A) (A) (A) (A) (A) (A) (A) (A) (A)
                 (A) (A) (A) (A) (A) (A) (A) (A) (A) (A) (A) (A)
                 (A) (A) (A) (A) (A) (A) (A) (A) (A) (A) (A) (A)
                 (A) (A) (A) (A) (A) (A) (A) (A) (A) (A) (A) (A)
                 (A) (A) (A) (A) (A) (A) (A) (A) (A) (A) (A) (A)
                 (A) (A) (A) (A) (A) (A) (A) (A) (A) (A) (A) (A)
                 (A) (A) (A) (A) (A) (A) (A) (A) (A) (A) (A) (A)
                 (A) (A) (A) (A) (A) (A) (A) (A) (A) (A) (A) (A)
                 (A) (A) (A) (A) (A) (A) (A) (A) (A) (A) (A) (A)
                 (A) (A) (A) (A) (A) (A) (A) (A) (A) (A) (A) (A)
                 (A) (A) (A) (A) (A) (A) (A) (A) (A) (A) (A)
    24 initial guesses have been made.
 Convergence on wavefunction:    0.001000000000000
 Iteration     1 Dimension    24 NMult     0 NNew     24
 CISAX will form    24 AO SS matrices at one time.
 New state      1 was old state      2
 New state      2 was old state      1
 New state      3 was old state     16
 New state      4 was old state     18
 New state      5 was old state     22
 New state      6 was old state      5
 New state      7 was old state      4
 New state      8 was old state      3
 New state      9 was old state      6
 New state     10 was old state     17
 New state     11 was old state      8
 New state     12 was old state     24
 Vector   5 SDiff=9.16D-02 TDiff=4.11D+00 assumed to be singlet.
 Vector  11 SDiff=9.56D-02 TDiff=3.74D+00 assumed to be singlet.
 Iteration     2 Dimension    36 NMult    24 NNew     12
 New state      5 was old state      6
 New state      6 was old state      8
 Iteration     3 Dimension    48 NMult    36 NNew     12
 Iteration     4 Dimension    60 NMult    48 NNew     12
 Iteration     5 Dimension    68 NMult    60 NNew      8
 Iteration     6 Dimension    70 NMult    68 NNew      2
 Iteration     7 Dimension    72 NMult    70 NNew      2
 Iteration     8 Dimension    74 NMult    72 NNew      2
 ***********************************************************************
 Excited states from <AA,BB:AA,BB> singles matrix:
 ***********************************************************************
 
 Ground to excited state transition densities written to RWF  633
 Ground to excited state transition electric dipole moments (Au):
       state          X           Y           Z        Dip. S.      Osc.
         1         0.0000      0.0000      0.0000      0.0000      0.0000
         2         0.3772     -0.1389      0.0392      0.1631      0.0076
         3        -0.0000     -0.0000     -0.0000      0.0000      0.0000
         4        -0.0000      0.0000     -0.0000      0.0000      0.0000
         5         0.0254      0.0258     -0.0002      0.0013      0.0001
         6         0.0403      0.0462     -0.0007      0.0038      0.0003
 Ground to excited state transition velocity dipole moments (Au):
       state          X           Y           Z        Dip. S.      Osc.
         1        -0.0000     -0.0000     -0.0000      0.0000      0.0000
         2        -0.0227      0.0080     -0.0028      0.0006      0.0056
         3         0.0000      0.0000      0.0000      0.0000      0.0000
         4         0.0000     -0.0000     -0.0000      0.0000      0.0000
         5        -0.0010      0.0003     -0.0000      0.0000      0.0000
         6        -0.0040     -0.0071      0.0006      0.0001      0.0004
 Ground to excited state transition magnetic dipole moments (Au):
       state          X           Y           Z
         1         0.0000      0.0000     -0.0000
         2         0.0071      0.0057     -0.0302
         3        -0.0000      0.0000     -0.0000
         4        -0.0000     -0.0000     -0.0000
         5         0.3394     -0.0829     -0.4420
         6        -0.0141     -0.0209     -0.0148
 Ground to excited state transition velocity quadrupole moments (Au):
       state          XX          YY          ZZ          XY          XZ          YZ
         1        -0.0000      0.0000     -0.0000     -0.0000     -0.0000      0.0000
         2         0.0840     -0.0562     -0.0151      0.0318     -0.0177     -0.0006
         3         0.0000      0.0000      0.0000     -0.0000     -0.0000     -0.0000
         4         0.0000      0.0000      0.0000      0.0000      0.0000     -0.0000
         5        -0.0359     -0.0032      0.0002     -0.0410      0.0163     -0.0099
         6        -0.0009     -0.0504      0.0022     -0.0199      0.0006      0.0068
 <0|del|b> * <b|rxdel|0> + <0|del|b> * <b|delr+rdel|0>
 Rotatory Strengths (R) in cgs (10**-40 erg-esu-cm/Gauss)
       state          XX          YY          ZZ    R(velocity)    E-M Angle
         1        -0.0000     -0.0000     -0.0000     -0.0000       90.00
         2         0.9339      0.1547     -1.3778     -0.0964       90.00
         3         0.0000     -0.0000      0.0000     -0.0000       90.00
         4         0.0000     -0.0000      0.0000      0.0000       90.00
         5        -0.0541     -0.9266     -1.0760     -0.6856      126.79
         6         0.3665      0.0901      0.6357      0.3641       34.99
 1/2[<0|r|b>*<b|rxdel|0> + (<0|rxdel|b>*<b|r|0>)*]
 Rotatory Strengths (R) in cgs (10**-40 erg-esu-cm/Gauss)
       state          XX          YY          ZZ     R(length)
         1        -0.0000     -0.0000      0.0000     -0.0000
         2        -1.8856      0.5628      0.8373     -0.1618
         3        -0.0000      0.0000     -0.0000     -0.0000
         4        -0.0000      0.0000     -0.0000     -0.0000
         5        -6.0901      1.5136     -0.0581     -1.5448
         6         0.4013      0.6847     -0.0070      0.3597
  1/2[<0|del|b>*<b|r|0> + (<0|r|b>*<b|del|0>)*] (Au)
       state          X           Y           Z        Dip. S.   Osc.(frdel)
         1        -0.0000     -0.0000     -0.0000      0.0000      0.0000
         2        -0.0086     -0.0011     -0.0001      0.0098      0.0065
         3        -0.0000     -0.0000     -0.0000      0.0000      0.0000
         4        -0.0000     -0.0000      0.0000      0.0000      0.0000
         5        -0.0000      0.0000      0.0000      0.0000      0.0000
         6        -0.0002     -0.0003     -0.0000      0.0005      0.0003

 Excitation energies and oscillator strengths:
 
 Excited State   1:      Triplet-A      1.8712 eV  662.58 nm  f=0.0000  <S**2>=2.000
      86 -> 87         0.70570
 This state for optimization and/or second-order correction.
 Total Energy, E(TD-HF/TD-DFT) =  -1302.57302053    
 Copying the excited state density for this state as the 1-particle RhoCI density.
 
 Excited State   2:      Singlet-A      1.8925 eV  655.12 nm  f=0.0076  <S**2>=0.000
      86 -> 87         0.70628
 
 Excited State   3:      Triplet-A      2.6754 eV  463.43 nm  f=0.0000  <S**2>=2.000
      81 -> 87         0.12422
      82 -> 87         0.59014
      83 -> 87         0.32401
 
 Excited State   4:      Triplet-A      2.8314 eV  437.89 nm  f=0.0000  <S**2>=2.000
      83 -> 94        -0.11215
      86 -> 88         0.25715
      86 -> 89        -0.39518
      86 -> 90        -0.20614
      86 -> 92         0.46032
 
 Excited State   5:      Singlet-A      3.3551 eV  369.54 nm  f=0.0001  <S**2>=0.000
      81 -> 87         0.40256
      82 -> 87        -0.16183
      83 -> 87         0.12435
      84 -> 87         0.53442
 
 Excited State   6:      Singlet-A      3.4595 eV  358.39 nm  f=0.0003  <S**2>=0.000
      85 -> 87         0.70364
 SavETr:  write IOETrn=   770 NScale= 10 NData=  16 NLR=1 NState=    6 LETran=     118.

 **********************************************************************

            Population analysis using the SCF Density.

 **********************************************************************

 Orbital symmetries:
       Occupied  (A) (A) (A) (A) (A) (A) (A) (A) (A) (A) (A) (A)
                 (A) (A) (A) (A) (A) (A) (A) (A) (A) (A) (A) (A)
                 (A) (A) (A) (A) (A) (A) (A) (A) (A) (A) (A) (A)
                 (A) (A) (A) (A) (A) (A) (A) (A) (A) (A) (A) (A)
                 (A) (A) (A) (A) (A) (A) (A) (A) (A) (A) (A) (A)
                 (A) (A) (A) (A) (A) (A) (A) (A) (A) (A) (A) (A)
                 (A) (A) (A) (A) (A) (A) (A) (A) (A) (A) (A) (A)
                 (A) (A)
       Virtual   (A) (A) (A) (A) (A) (A) (A) (A) (A) (A) (A) (A)
                 (A) (A) (A) (A) (A) (A) (A) (A) (A) (A) (A) (A)
                 (A) (A) (A) (A) (A) (A) (A) (A) (A) (A) (A) (A)
                 (A) (A) (A) (A) (A) (A) (A) (A) (A) (A) (A) (A)
                 (A) (A) (A) (A) (A) (A) (A) (A) (A) (A) (A) (A)
                 (A) (A) (A) (A) (A) (A) (A) (A) (A) (A) (A) (A)
                 (A) (A) (A) (A) (A) (A) (A) (A) (A) (A) (A) (A)
                 (A) (A) (A) (A) (A) (A) (A) (A) (A) (A) (A) (A)
                 (A) (A) (A) (A) (A) (A) (A) (A) (A) (A) (A) (A)
                 (A) (A) (A) (A) (A) (A) (A) (A) (A) (A) (A) (A)
                 (A) (A) (A) (A) (A) (A) (A) (A) (A) (A) (A) (A)
                 (A) (A) (A) (A) (A) (A) (A) (A) (A) (A) (A) (A)
                 (A) (A) (A) (A) (A) (A) (A) (A) (A) (A) (A) (A)
                 (A) (A) (A) (A) (A) (A) (A) (A) (A) (A) (A)
 The electronic state is 1-A.
 Alpha  occ. eigenvalues --  -88.90878 -19.13685 -14.35114 -10.28568 -10.23924
 Alpha  occ. eigenvalues --  -10.23462 -10.21341 -10.21092 -10.20999 -10.20516
 Alpha  occ. eigenvalues --  -10.19930 -10.18894 -10.18564 -10.18241 -10.18222
 Alpha  occ. eigenvalues --  -10.17886 -10.17516 -10.16974 -10.16847 -10.16814
 Alpha  occ. eigenvalues --  -10.16645 -10.16255 -10.16244  -7.98698  -5.95026
 Alpha  occ. eigenvalues --   -5.94631  -5.94151  -1.04287  -0.95006  -0.89295
 Alpha  occ. eigenvalues --   -0.85549  -0.80030  -0.78857  -0.77142  -0.75887
 Alpha  occ. eigenvalues --   -0.75192  -0.74614  -0.71139  -0.70758  -0.67845
 Alpha  occ. eigenvalues --   -0.67350  -0.62944  -0.62519  -0.60716  -0.58078
 Alpha  occ. eigenvalues --   -0.55948  -0.55690  -0.53535  -0.51264  -0.49859
 Alpha  occ. eigenvalues --   -0.48848  -0.48083  -0.47032  -0.45490  -0.44858
 Alpha  occ. eigenvalues --   -0.44653  -0.43787  -0.43187  -0.42142  -0.41650
 Alpha  occ. eigenvalues --   -0.41330  -0.41088  -0.40828  -0.40185  -0.39911
 Alpha  occ. eigenvalues --   -0.39487  -0.39198  -0.39003  -0.38649  -0.38364
 Alpha  occ. eigenvalues --   -0.36522  -0.35543  -0.35356  -0.34953  -0.34022
 Alpha  occ. eigenvalues --   -0.33100  -0.32537  -0.32130  -0.30941  -0.26902
 Alpha  occ. eigenvalues --   -0.25545  -0.25236  -0.24892  -0.22551  -0.22013
 Alpha  occ. eigenvalues --   -0.16065
 Alpha virt. eigenvalues --   -0.07234   0.00591   0.00703   0.01730   0.02372
 Alpha virt. eigenvalues --    0.02937   0.07002   0.07827   0.08313   0.09732
 Alpha virt. eigenvalues --    0.10483   0.11033   0.11601   0.12988   0.13149
 Alpha virt. eigenvalues --    0.13831   0.14564   0.14600   0.15196   0.15690
 Alpha virt. eigenvalues --    0.16697   0.17083   0.17306   0.17450   0.17870
 Alpha virt. eigenvalues --    0.18516   0.19252   0.19666   0.20186   0.20479
 Alpha virt. eigenvalues --    0.21434   0.22724   0.23953   0.24936   0.25685
 Alpha virt. eigenvalues --    0.25957   0.26239   0.27285   0.27493   0.29765
 Alpha virt. eigenvalues --    0.29884   0.31674   0.34005   0.34053   0.35420
 Alpha virt. eigenvalues --    0.35669   0.36910   0.37317   0.38237   0.39660
 Alpha virt. eigenvalues --    0.40004   0.42263   0.42812   0.43552   0.45062
 Alpha virt. eigenvalues --    0.45432   0.48027   0.50426   0.52179   0.53298
 Alpha virt. eigenvalues --    0.53836   0.53998   0.54679   0.55254   0.56517
 Alpha virt. eigenvalues --    0.57394   0.57586   0.58315   0.58582   0.59213
 Alpha virt. eigenvalues --    0.59595   0.59763   0.61071   0.61745   0.61908
 Alpha virt. eigenvalues --    0.62815   0.63433   0.63492   0.63942   0.64435
 Alpha virt. eigenvalues --    0.64838   0.65639   0.66034   0.66984   0.67159
 Alpha virt. eigenvalues --    0.68451   0.69166   0.70235   0.71858   0.72377
 Alpha virt. eigenvalues --    0.73841   0.74370   0.76142   0.76806   0.77431
 Alpha virt. eigenvalues --    0.77752   0.79622   0.80104   0.81199   0.81638
 Alpha virt. eigenvalues --    0.82437   0.82909   0.84268   0.84563   0.86005
 Alpha virt. eigenvalues --    0.86404   0.86881   0.87183   0.88124   0.88723
 Alpha virt. eigenvalues --    0.88943   0.90621   0.91707   0.92033   0.93115
 Alpha virt. eigenvalues --    0.93619   0.94176   0.94493   0.95656   0.96260
 Alpha virt. eigenvalues --    0.96872   0.97203   0.97618   0.98061   0.98434
 Alpha virt. eigenvalues --    0.99183   0.99814   1.00903   1.03122   1.03457
 Alpha virt. eigenvalues --    1.04007   1.07301   1.07398   1.09092   1.10807
 Alpha virt. eigenvalues --    1.11710   1.13529   1.14384   1.15354   1.15979
 Alpha virt. eigenvalues --    1.16988   1.17890   1.20583   1.21330   1.23517
 Alpha virt. eigenvalues --    1.26028   1.27303   1.29065   1.30450   1.31597
 Alpha virt. eigenvalues --    1.33211   1.34821   1.35513   1.42849   1.44538
 Alpha virt. eigenvalues --    1.48267   1.48587   1.49870   1.52499   1.56139
 Alpha virt. eigenvalues --    1.58382   1.61152   1.71321   1.75789   1.91545
 Alpha virt. eigenvalues --    1.96349   2.00774
          Condensed to atoms (all electrons):
               1          2          3          4          5          6
     1  C    5.168053   0.304718  -0.049778   0.004990  -0.000216   0.001145
     2  C    0.304718   4.782061   0.512102  -0.035981   0.005804  -0.028412
     3  C   -0.049778   0.512102   5.081887   0.493075  -0.050210  -0.044022
     4  C    0.004990  -0.035981   0.493075   4.905785   0.313648   0.492874
     5  C   -0.000216   0.005804  -0.050210   0.313648   5.186284  -0.048415
     6  C    0.001145  -0.028412  -0.044022   0.492874  -0.048415   4.982546
     7  C    0.000005   0.000048   0.008525  -0.058226  -0.016248   0.329852
     8  C    0.000000   0.000026  -0.000072  -0.000865  -0.001212  -0.019503
     9  N   -0.000000  -0.000000   0.000001  -0.000004  -0.000008   0.003300
    10  C   -0.000000   0.000000  -0.000000   0.000000   0.000001  -0.000044
    11  C    0.000000   0.000000   0.000000   0.000012   0.000008   0.000817
    12  C   -0.000000   0.000000   0.000001   0.000258  -0.000187   0.005718
    13  C   -0.000000   0.000010  -0.000004  -0.004635  -0.001368  -0.040116
    14  C    0.006187  -0.039612  -0.048562  -0.036529   0.006503   0.511256
    15  C   -0.000254   0.006115   0.000768   0.006277  -0.000169  -0.034822
    16  C   -0.000002  -0.000008   0.000044  -0.000138  -0.000001  -0.001729
    17  O    0.000000  -0.000035   0.000010  -0.000023  -0.000001   0.001473
    18  C   -0.000000   0.000002   0.000000   0.000001  -0.000000  -0.000056
    19  C    0.000000   0.000000  -0.000000  -0.000000   0.000000   0.000000
    20  C   -0.000000  -0.000000   0.000000  -0.000000  -0.000000  -0.000000
    21  C    0.000000   0.000000  -0.000000   0.000000   0.000000   0.000000
    22  S   -0.000000  -0.000000   0.000000  -0.000000   0.000000  -0.000006
    23  C   -0.037646   0.540233  -0.053967  -0.046544   0.000825  -0.048600
    24  H    0.365727  -0.033305  -0.002328   0.000187  -0.000000   0.000005
    25  H    0.366140  -0.032399  -0.002831  -0.000035   0.000003   0.000015
    26  H    0.365911  -0.035003   0.003184  -0.000179   0.000002  -0.000014
    27  H   -0.005291  -0.044514   0.346628  -0.034788  -0.007024   0.004376
    28  H   -0.000004   0.000400  -0.002611  -0.035462   0.362035   0.003517
    29  H    0.000004  -0.000189  -0.002089  -0.030252   0.361318  -0.003198
    30  H    0.000002  -0.000181   0.002694  -0.032977   0.362864  -0.005480
    31  H   -0.000000  -0.000011   0.000017   0.000283  -0.000005  -0.004261
    32  H    0.000000   0.000000   0.000000  -0.000002  -0.000001   0.000001
    33  H    0.000000   0.000000   0.000000  -0.000000  -0.000000   0.000002
    34  H   -0.000000  -0.000000  -0.000000   0.000000   0.000000  -0.000000
    35  H   -0.000000  -0.000000   0.000000   0.000000  -0.000000  -0.000011
    36  H   -0.000000  -0.000000  -0.000000  -0.000001  -0.000003  -0.000181
    37  H   -0.000000  -0.000015   0.000066  -0.000070  -0.000049  -0.000011
    38  H    0.000000  -0.000004  -0.000279   0.000846   0.002896  -0.002532
    39  H    0.000002  -0.000165  -0.000012   0.000445  -0.000002  -0.006839
    40  H    0.000001   0.000304  -0.000021  -0.000099   0.000002   0.001930
    41  H   -0.000000   0.000000  -0.000000  -0.000000   0.000000  -0.000000
    42  H    0.000000   0.000000  -0.000000   0.000000   0.000000   0.000000
    43  H   -0.000000  -0.000000   0.000000  -0.000000   0.000000  -0.000000
    44  H   -0.007303  -0.034190   0.005117   0.000858   0.000010   0.003587
               7          8          9         10         11         12
     1  C    0.000005   0.000000  -0.000000  -0.000000   0.000000  -0.000000
     2  C    0.000048   0.000026  -0.000000   0.000000   0.000000   0.000000
     3  C    0.008525  -0.000072   0.000001  -0.000000   0.000000   0.000001
     4  C   -0.058226  -0.000865  -0.000004   0.000000   0.000012   0.000258
     5  C   -0.016248  -0.001212  -0.000008   0.000001   0.000008  -0.000187
     6  C    0.329852  -0.019503   0.003300  -0.000044   0.000817   0.005718
     7  C    5.053704   0.617977  -0.039243   0.004019  -0.004899  -0.013946
     8  C    0.617977   4.878039   0.213046  -0.032325  -0.055309  -0.013069
     9  N   -0.039243   0.213046   7.244195   0.259529   0.259696  -0.050768
    10  C    0.004019  -0.032325   0.259529   4.914617  -0.033525   0.003818
    11  C   -0.004899  -0.055309   0.259696  -0.033525   4.731830   0.667774
    12  C   -0.013946  -0.013069  -0.050768   0.003818   0.667774   5.001135
    13  C    0.328646  -0.056806  -0.031238   0.000050  -0.044694   0.312499
    14  C   -0.064878  -0.006565   0.000250  -0.000006   0.000004  -0.000003
    15  C   -0.013475  -0.003328  -0.000205  -0.000003   0.000019  -0.000076
    16  C   -0.002690  -0.000450   0.000079   0.000046  -0.000008  -0.000001
    17  O   -0.001341  -0.005668   0.000018   0.000049  -0.000002  -0.000000
    18  C   -0.000073  -0.000182   0.000005  -0.000000   0.000000  -0.000000
    19  C    0.000002   0.000007  -0.000000  -0.000000  -0.000000   0.000000
    20  C    0.000000  -0.000000   0.000000  -0.000000   0.000000  -0.000000
    21  C   -0.000000   0.000000  -0.000000   0.000000  -0.000000  -0.000000
    22  S    0.000007   0.000003  -0.000000  -0.000000   0.000000   0.000000
    23  C    0.008964   0.000172   0.000001  -0.000000   0.000000   0.000000
    24  H   -0.000000   0.000000  -0.000000   0.000000  -0.000000   0.000000
    25  H   -0.000000  -0.000000   0.000000  -0.000000   0.000000  -0.000000
    26  H   -0.000000   0.000000  -0.000000   0.000000  -0.000000   0.000000
    27  H   -0.000209  -0.000001  -0.000000   0.000000  -0.000000  -0.000000
    28  H    0.000219   0.000029  -0.000000   0.000000  -0.000001  -0.000000
    29  H    0.000283  -0.000037   0.000009  -0.000000  -0.000004  -0.000224
    30  H    0.012278   0.003484  -0.000338  -0.000003   0.000144   0.000393
    31  H   -0.034626   0.357516  -0.050120  -0.003523   0.003444  -0.000324
    32  H    0.000552   0.000285  -0.041579   0.380360   0.002532  -0.000219
    33  H   -0.000203   0.002143  -0.045263   0.376898  -0.000975   0.000414
    34  H    0.000008   0.001422  -0.057028   0.371560   0.001173   0.000195
    35  H   -0.000545   0.004541  -0.060393  -0.002715   0.369204  -0.032061
    36  H    0.003076   0.000788   0.004609  -0.000138  -0.033026   0.356752
    37  H   -0.049467  -0.001198   0.001607   0.000019  -0.000945  -0.043971
    38  H   -0.045233   0.000929   0.000857  -0.000001   0.000361  -0.042539
    39  H    0.014619   0.006722  -0.000497  -0.000029   0.000111   0.000092
    40  H    0.000517   0.000278  -0.000001   0.000000  -0.000000  -0.000000
    41  H    0.000000  -0.000000  -0.000000   0.000000  -0.000000   0.000000
    42  H   -0.000000   0.000000   0.000000  -0.000000  -0.000000   0.000000
    43  H    0.000000   0.000000  -0.000000   0.000000  -0.000000   0.000000
    44  H   -0.000217  -0.000004  -0.000000   0.000000  -0.000000  -0.000000
              13         14         15         16         17         18
     1  C   -0.000000   0.006187  -0.000254  -0.000002   0.000000  -0.000000
     2  C    0.000010  -0.039612   0.006115  -0.000008  -0.000035   0.000002
     3  C   -0.000004  -0.048562   0.000768   0.000044   0.000010   0.000000
     4  C   -0.004635  -0.036529   0.006277  -0.000138  -0.000023   0.000001
     5  C   -0.001368   0.006503  -0.000169  -0.000001  -0.000001  -0.000000
     6  C   -0.040116   0.511256  -0.034822  -0.001729   0.001473  -0.000056
     7  C    0.328646  -0.064878  -0.013475  -0.002690  -0.001341  -0.000073
     8  C   -0.056806  -0.006565  -0.003328  -0.000450  -0.005668  -0.000182
     9  N   -0.031238   0.000250  -0.000205   0.000079   0.000018   0.000005
    10  C    0.000050  -0.000006  -0.000003   0.000046   0.000049  -0.000000
    11  C   -0.044694   0.000004   0.000019  -0.000008  -0.000002   0.000000
    12  C    0.312499  -0.000003  -0.000076  -0.000001  -0.000000  -0.000000
    13  C    5.148590   0.000683  -0.000077   0.000002  -0.000001   0.000001
    14  C    0.000683   4.952003   0.249950  -0.030108   0.007299   0.005184
    15  C   -0.000077   0.249950   5.702922   0.173032  -0.123822  -0.153737
    16  C    0.000002  -0.030108   0.173032   4.913774   0.571018   0.097077
    17  O   -0.000001   0.007299  -0.123822   0.571018   8.102630  -0.146435
    18  C    0.000001   0.005184  -0.153737   0.097077  -0.146435   6.048332
    19  C   -0.000000  -0.000166   0.009029  -0.017581   0.006667   0.408796
    20  C    0.000000   0.000004  -0.000134   0.007914   0.000798  -0.026617
    21  C    0.000000  -0.000005  -0.000082   0.003141  -0.000061  -0.070583
    22  S    0.000000  -0.000139   0.010651  -0.026057   0.001835   0.239190
    23  C   -0.000105   0.461872  -0.053994  -0.003072  -0.000164   0.000789
    24  H   -0.000000  -0.000211   0.000003   0.000000  -0.000000   0.000000
    25  H    0.000000  -0.000180   0.000003  -0.000000  -0.000000   0.000000
    26  H   -0.000000   0.000381   0.000002   0.000000   0.000000  -0.000000
    27  H    0.000000   0.000800   0.000010   0.000000  -0.000000   0.000000
    28  H    0.000169  -0.000179   0.000002   0.000000   0.000000   0.000000
    29  H   -0.001243  -0.000174   0.000006  -0.000000   0.000000  -0.000000
    30  H   -0.000980   0.000280  -0.000004   0.000000   0.000000   0.000000
    31  H    0.005090   0.001778  -0.002043   0.000462   0.018954   0.000584
    32  H   -0.000001   0.000001   0.000003   0.000008  -0.000013  -0.000001
    33  H    0.000003   0.000000   0.000000   0.000000   0.000000  -0.000000
    34  H    0.000007  -0.000001  -0.000006  -0.000004   0.000013  -0.000002
    35  H    0.005513   0.000000  -0.000000   0.000000   0.000000   0.000000
    36  H   -0.037389   0.000001  -0.000000  -0.000000  -0.000000   0.000000
    37  H    0.363532   0.001372   0.001017   0.000056   0.000000   0.000000
    38  H    0.360821  -0.000193  -0.000037  -0.000003   0.000000  -0.000000
    39  H    0.000553  -0.026333   0.340173  -0.031091  -0.000924   0.001515
    40  H    0.000001  -0.040958   0.341610  -0.032511   0.003263   0.004073
    41  H    0.000000  -0.000007   0.000536  -0.002284   0.006684  -0.048001
    42  H   -0.000000  -0.000000   0.000001  -0.000103   0.000001   0.004988
    43  H    0.000000   0.000000   0.000003  -0.000033   0.000000   0.002453
    44  H    0.000002  -0.038241  -0.005839   0.000484   0.000081   0.000002
              19         20         21         22         23         24
     1  C    0.000000  -0.000000   0.000000  -0.000000  -0.037646   0.365727
     2  C    0.000000  -0.000000   0.000000  -0.000000   0.540233  -0.033305
     3  C   -0.000000   0.000000  -0.000000   0.000000  -0.053967  -0.002328
     4  C   -0.000000  -0.000000   0.000000  -0.000000  -0.046544   0.000187
     5  C    0.000000  -0.000000   0.000000   0.000000   0.000825  -0.000000
     6  C    0.000000  -0.000000   0.000000  -0.000006  -0.048600   0.000005
     7  C    0.000002   0.000000  -0.000000   0.000007   0.008964  -0.000000
     8  C    0.000007  -0.000000   0.000000   0.000003   0.000172   0.000000
     9  N   -0.000000   0.000000  -0.000000  -0.000000   0.000001  -0.000000
    10  C   -0.000000  -0.000000   0.000000  -0.000000  -0.000000   0.000000
    11  C   -0.000000   0.000000  -0.000000   0.000000   0.000000  -0.000000
    12  C    0.000000  -0.000000  -0.000000   0.000000   0.000000   0.000000
    13  C   -0.000000   0.000000   0.000000   0.000000  -0.000105  -0.000000
    14  C   -0.000166   0.000004  -0.000005  -0.000139   0.461872  -0.000211
    15  C    0.009029  -0.000134  -0.000082   0.010651  -0.053994   0.000003
    16  C   -0.017581   0.007914   0.003141  -0.026057  -0.003072   0.000000
    17  O    0.006667   0.000798  -0.000061   0.001835  -0.000164  -0.000000
    18  C    0.408796  -0.026617  -0.070583   0.239190   0.000789   0.000000
    19  C    4.965923   0.457726  -0.040799  -0.094553  -0.000003  -0.000000
    20  C    0.457726   4.942946   0.447750  -0.087908  -0.000000   0.000000
    21  C   -0.040799   0.447750   5.516595   0.269867   0.000000   0.000000
    22  S   -0.094553  -0.087908   0.269867  15.234117   0.000032   0.000000
    23  C   -0.000003  -0.000000   0.000000   0.000032   5.077492   0.001012
    24  H   -0.000000   0.000000   0.000000   0.000000   0.001012   0.583767
    25  H   -0.000000   0.000000   0.000000  -0.000000  -0.001036  -0.034212
    26  H    0.000000  -0.000000  -0.000000   0.000000  -0.001720  -0.029659
    27  H   -0.000000   0.000000  -0.000000  -0.000000   0.004930   0.002388
    28  H   -0.000000   0.000000  -0.000000  -0.000000  -0.000002   0.000003
    29  H    0.000000   0.000000  -0.000000  -0.000000   0.000017  -0.000001
    30  H   -0.000000  -0.000000   0.000000   0.000000  -0.000006   0.000000
    31  H   -0.000008  -0.000000   0.000000  -0.000010  -0.000012  -0.000000
    32  H   -0.000000   0.000000   0.000000  -0.000000  -0.000000   0.000000
    33  H   -0.000000   0.000000   0.000000  -0.000000  -0.000000  -0.000000
    34  H    0.000002  -0.000000  -0.000000   0.000000   0.000000  -0.000000
    35  H   -0.000000   0.000000   0.000000  -0.000000   0.000000  -0.000000
    36  H   -0.000000  -0.000000  -0.000000   0.000000  -0.000000  -0.000000
    37  H   -0.000000   0.000000  -0.000000  -0.000001  -0.000099   0.000000
    38  H    0.000000  -0.000000   0.000000  -0.000000   0.000039  -0.000000
    39  H   -0.000316   0.000011  -0.000007  -0.000132   0.003870  -0.000000
    40  H    0.000235  -0.000024   0.000081   0.007381  -0.000671  -0.000000
    41  H    0.368729  -0.033573   0.006370   0.004442   0.000000  -0.000000
    42  H   -0.026532   0.360158  -0.039472   0.004545  -0.000000  -0.000000
    43  H    0.002333  -0.014637   0.365384  -0.023960  -0.000000  -0.000000
    44  H    0.000006  -0.000000  -0.000000   0.000184   0.342070   0.000099
              25         26         27         28         29         30
     1  C    0.366140   0.365911  -0.005291  -0.000004   0.000004   0.000002
     2  C   -0.032399  -0.035003  -0.044514   0.000400  -0.000189  -0.000181
     3  C   -0.002831   0.003184   0.346628  -0.002611  -0.002089   0.002694
     4  C   -0.000035  -0.000179  -0.034788  -0.035462  -0.030252  -0.032977
     5  C    0.000003   0.000002  -0.007024   0.362035   0.361318   0.362864
     6  C    0.000015  -0.000014   0.004376   0.003517  -0.003198  -0.005480
     7  C   -0.000000  -0.000000  -0.000209   0.000219   0.000283   0.012278
     8  C   -0.000000   0.000000  -0.000001   0.000029  -0.000037   0.003484
     9  N    0.000000  -0.000000  -0.000000  -0.000000   0.000009  -0.000338
    10  C   -0.000000   0.000000   0.000000   0.000000  -0.000000  -0.000003
    11  C    0.000000  -0.000000  -0.000000  -0.000001  -0.000004   0.000144
    12  C   -0.000000   0.000000  -0.000000  -0.000000  -0.000224   0.000393
    13  C    0.000000  -0.000000   0.000000   0.000169  -0.001243  -0.000980
    14  C   -0.000180   0.000381   0.000800  -0.000179  -0.000174   0.000280
    15  C    0.000003   0.000002   0.000010   0.000002   0.000006  -0.000004
    16  C   -0.000000   0.000000   0.000000   0.000000  -0.000000   0.000000
    17  O   -0.000000   0.000000  -0.000000   0.000000   0.000000   0.000000
    18  C    0.000000  -0.000000   0.000000   0.000000  -0.000000   0.000000
    19  C   -0.000000   0.000000  -0.000000  -0.000000   0.000000  -0.000000
    20  C    0.000000  -0.000000   0.000000   0.000000   0.000000  -0.000000
    21  C    0.000000  -0.000000  -0.000000  -0.000000  -0.000000   0.000000
    22  S   -0.000000   0.000000  -0.000000  -0.000000  -0.000000   0.000000
    23  C   -0.001036  -0.001720   0.004930  -0.000002   0.000017  -0.000006
    24  H   -0.034212  -0.029659   0.002388   0.000003  -0.000001   0.000000
    25  H    0.579522  -0.030357   0.001118  -0.000003   0.000000  -0.000000
    26  H   -0.030357   0.581361   0.000042   0.000000  -0.000000  -0.000000
    27  H    0.001118   0.000042   0.614579   0.005337   0.000479   0.000071
    28  H   -0.000003   0.000000   0.005337   0.589481  -0.031172  -0.028443
    29  H    0.000000  -0.000000   0.000479  -0.031172   0.584323  -0.034528
    30  H   -0.000000  -0.000000   0.000071  -0.028443  -0.034528   0.564466
    31  H    0.000000   0.000000   0.000000   0.000001   0.000000   0.000072
    32  H   -0.000000   0.000000  -0.000000   0.000000  -0.000000   0.000003
    33  H   -0.000000  -0.000000  -0.000000  -0.000000  -0.000000   0.000001
    34  H    0.000000  -0.000000   0.000000  -0.000000   0.000000  -0.000000
    35  H    0.000000  -0.000000  -0.000000  -0.000000  -0.000000   0.000001
    36  H    0.000000   0.000000   0.000000   0.000000   0.000003  -0.000007
    37  H   -0.000000   0.000000  -0.000000  -0.000005  -0.000104   0.000236
    38  H    0.000000   0.000000   0.000006  -0.000026   0.006142  -0.002544
    39  H   -0.000000   0.000000  -0.000000  -0.000000  -0.000001  -0.000001
    40  H    0.000000  -0.000002  -0.000000  -0.000000   0.000000  -0.000000
    41  H    0.000000   0.000000  -0.000000  -0.000000   0.000000  -0.000000
    42  H   -0.000000   0.000000  -0.000000  -0.000000   0.000000  -0.000000
    43  H    0.000000  -0.000000   0.000000   0.000000  -0.000000  -0.000000
    44  H    0.000159   0.005595  -0.000217  -0.000000  -0.000000  -0.000000
              31         32         33         34         35         36
     1  C   -0.000000   0.000000   0.000000  -0.000000  -0.000000  -0.000000
     2  C   -0.000011   0.000000   0.000000  -0.000000  -0.000000  -0.000000
     3  C    0.000017   0.000000   0.000000  -0.000000   0.000000  -0.000000
     4  C    0.000283  -0.000002  -0.000000   0.000000   0.000000  -0.000001
     5  C   -0.000005  -0.000001  -0.000000   0.000000  -0.000000  -0.000003
     6  C   -0.004261   0.000001   0.000002  -0.000000  -0.000011  -0.000181
     7  C   -0.034626   0.000552  -0.000203   0.000008  -0.000545   0.003076
     8  C    0.357516   0.000285   0.002143   0.001422   0.004541   0.000788
     9  N   -0.050120  -0.041579  -0.045263  -0.057028  -0.060393   0.004609
    10  C   -0.003523   0.380360   0.376898   0.371560  -0.002715  -0.000138
    11  C    0.003444   0.002532  -0.000975   0.001173   0.369204  -0.033026
    12  C   -0.000324  -0.000219   0.000414   0.000195  -0.032061   0.356752
    13  C    0.005090  -0.000001   0.000003   0.000007   0.005513  -0.037389
    14  C    0.001778   0.000001   0.000000  -0.000001   0.000000   0.000001
    15  C   -0.002043   0.000003   0.000000  -0.000006  -0.000000  -0.000000
    16  C    0.000462   0.000008   0.000000  -0.000004   0.000000  -0.000000
    17  O    0.018954  -0.000013   0.000000   0.000013   0.000000  -0.000000
    18  C    0.000584  -0.000001  -0.000000  -0.000002   0.000000   0.000000
    19  C   -0.000008  -0.000000  -0.000000   0.000002  -0.000000  -0.000000
    20  C   -0.000000   0.000000   0.000000  -0.000000   0.000000  -0.000000
    21  C    0.000000   0.000000   0.000000  -0.000000   0.000000  -0.000000
    22  S   -0.000010  -0.000000  -0.000000   0.000000  -0.000000   0.000000
    23  C   -0.000012  -0.000000  -0.000000   0.000000   0.000000  -0.000000
    24  H   -0.000000   0.000000  -0.000000  -0.000000  -0.000000  -0.000000
    25  H    0.000000  -0.000000  -0.000000   0.000000   0.000000   0.000000
    26  H    0.000000   0.000000  -0.000000  -0.000000  -0.000000   0.000000
    27  H    0.000000  -0.000000  -0.000000   0.000000  -0.000000   0.000000
    28  H    0.000001   0.000000  -0.000000  -0.000000  -0.000000   0.000000
    29  H    0.000000  -0.000000  -0.000000   0.000000  -0.000000   0.000003
    30  H    0.000072   0.000003   0.000001  -0.000000   0.000001  -0.000007
    31  H    0.518443   0.003311   0.000149   0.000045  -0.000133   0.000007
    32  H    0.003311   0.556101  -0.023813  -0.039559   0.000106   0.000003
    33  H    0.000149  -0.023813   0.583979  -0.045065   0.003578   0.000000
    34  H    0.000045  -0.039559  -0.045065   0.618316   0.000052  -0.000001
    35  H   -0.000133   0.000106   0.003578   0.000052   0.589490  -0.005363
    36  H    0.000007   0.000003   0.000000  -0.000001  -0.005363   0.605618
    37  H   -0.000085   0.000001   0.000002  -0.000011  -0.000110  -0.000052
    38  H   -0.000157  -0.000002  -0.000002   0.000003  -0.000149  -0.001509
    39  H    0.000100  -0.000008  -0.000000   0.000043   0.000000  -0.000002
    40  H    0.000004  -0.000000  -0.000000   0.000000  -0.000000   0.000000
    41  H    0.000003   0.000000  -0.000000   0.000000  -0.000000   0.000000
    42  H   -0.000000   0.000000   0.000000  -0.000000  -0.000000  -0.000000
    43  H   -0.000000   0.000000  -0.000000   0.000000  -0.000000   0.000000
    44  H    0.000002   0.000000  -0.000000  -0.000000  -0.000000   0.000000
              37         38         39         40         41         42
     1  C   -0.000000   0.000000   0.000002   0.000001  -0.000000   0.000000
     2  C   -0.000015  -0.000004  -0.000165   0.000304   0.000000   0.000000
     3  C    0.000066  -0.000279  -0.000012  -0.000021  -0.000000  -0.000000
     4  C   -0.000070   0.000846   0.000445  -0.000099  -0.000000   0.000000
     5  C   -0.000049   0.002896  -0.000002   0.000002   0.000000   0.000000
     6  C   -0.000011  -0.002532  -0.006839   0.001930  -0.000000   0.000000
     7  C   -0.049467  -0.045233   0.014619   0.000517   0.000000  -0.000000
     8  C   -0.001198   0.000929   0.006722   0.000278  -0.000000   0.000000
     9  N    0.001607   0.000857  -0.000497  -0.000001  -0.000000   0.000000
    10  C    0.000019  -0.000001  -0.000029   0.000000   0.000000  -0.000000
    11  C   -0.000945   0.000361   0.000111  -0.000000  -0.000000  -0.000000
    12  C   -0.043971  -0.042539   0.000092  -0.000000   0.000000   0.000000
    13  C    0.363532   0.360821   0.000553   0.000001   0.000000  -0.000000
    14  C    0.001372  -0.000193  -0.026333  -0.040958  -0.000007  -0.000000
    15  C    0.001017  -0.000037   0.340173   0.341610   0.000536   0.000001
    16  C    0.000056  -0.000003  -0.031091  -0.032511  -0.002284  -0.000103
    17  O    0.000000   0.000000  -0.000924   0.003263   0.006684   0.000001
    18  C    0.000000  -0.000000   0.001515   0.004073  -0.048001   0.004988
    19  C   -0.000000   0.000000  -0.000316   0.000235   0.368729  -0.026532
    20  C    0.000000  -0.000000   0.000011  -0.000024  -0.033573   0.360158
    21  C   -0.000000   0.000000  -0.000007   0.000081   0.006370  -0.039472
    22  S   -0.000001  -0.000000  -0.000132   0.007381   0.004442   0.004545
    23  C   -0.000099   0.000039   0.003870  -0.000671   0.000000  -0.000000
    24  H    0.000000  -0.000000  -0.000000  -0.000000  -0.000000  -0.000000
    25  H   -0.000000   0.000000  -0.000000   0.000000   0.000000  -0.000000
    26  H    0.000000   0.000000   0.000000  -0.000002   0.000000   0.000000
    27  H   -0.000000   0.000006  -0.000000  -0.000000  -0.000000  -0.000000
    28  H   -0.000005  -0.000026  -0.000000  -0.000000  -0.000000  -0.000000
    29  H   -0.000104   0.006142  -0.000001   0.000000   0.000000   0.000000
    30  H    0.000236  -0.002544  -0.000001  -0.000000  -0.000000  -0.000000
    31  H   -0.000085  -0.000157   0.000100   0.000004   0.000003  -0.000000
    32  H    0.000001  -0.000002  -0.000008  -0.000000   0.000000   0.000000
    33  H    0.000002  -0.000002  -0.000000  -0.000000  -0.000000   0.000000
    34  H   -0.000011   0.000003   0.000043   0.000000   0.000000  -0.000000
    35  H   -0.000110  -0.000149   0.000000  -0.000000  -0.000000  -0.000000
    36  H   -0.000052  -0.001509  -0.000002   0.000000   0.000000  -0.000000
    37  H    0.659888  -0.060300  -0.000845  -0.000102  -0.000000   0.000000
    38  H   -0.060300   0.647723   0.000111   0.000003  -0.000000  -0.000000
    39  H   -0.000845   0.000111   0.531233  -0.025595  -0.000011  -0.000000
    40  H   -0.000102   0.000003  -0.025595   0.575841  -0.000022  -0.000000
    41  H   -0.000000  -0.000000  -0.000011  -0.000022   0.521013  -0.001933
    42  H    0.000000  -0.000000  -0.000000  -0.000000  -0.001933   0.545641
    43  H   -0.000000  -0.000000  -0.000000   0.000002  -0.000102  -0.001416
    44  H    0.000001  -0.000000   0.000132   0.002871   0.000000  -0.000000
              43         44
     1  C   -0.000000  -0.007303
     2  C   -0.000000  -0.034190
     3  C    0.000000   0.005117
     4  C   -0.000000   0.000858
     5  C    0.000000   0.000010
     6  C   -0.000000   0.003587
     7  C    0.000000  -0.000217
     8  C    0.000000  -0.000004
     9  N   -0.000000  -0.000000
    10  C    0.000000   0.000000
    11  C   -0.000000  -0.000000
    12  C    0.000000  -0.000000
    13  C    0.000000   0.000002
    14  C    0.000000  -0.038241
    15  C    0.000003  -0.005839
    16  C   -0.000033   0.000484
    17  O    0.000000   0.000081
    18  C    0.002453   0.000002
    19  C    0.002333   0.000006
    20  C   -0.014637  -0.000000
    21  C    0.365384  -0.000000
    22  S   -0.023960   0.000184
    23  C   -0.000000   0.342070
    24  H   -0.000000   0.000099
    25  H    0.000000   0.000159
    26  H   -0.000000   0.005595
    27  H    0.000000  -0.000217
    28  H    0.000000  -0.000000
    29  H   -0.000000  -0.000000
    30  H   -0.000000  -0.000000
    31  H   -0.000000   0.000002
    32  H    0.000000   0.000000
    33  H   -0.000000  -0.000000
    34  H    0.000000  -0.000000
    35  H   -0.000000  -0.000000
    36  H    0.000000   0.000000
    37  H   -0.000000   0.000001
    38  H   -0.000000  -0.000000
    39  H   -0.000000   0.000132
    40  H    0.000002   0.002871
    41  H   -0.000102   0.000000
    42  H   -0.001416  -0.000000
    43  H    0.493235   0.000000
    44  H    0.000000   0.610773
 Mulliken charges:
               1
     1  C   -0.482392
     2  C    0.132201
     3  C   -0.197334
     4  C    0.097270
     5  C   -0.477085
     6  C   -0.054164
     7  C   -0.037782
     8  C    0.109187
     9  N   -0.610514
    10  C   -0.238652
    11  C    0.136260
    12  C   -0.151660
    13  C   -0.307516
    14  C    0.127240
    15  C   -0.450023
    16  C    0.380738
    17  O   -0.442306
    18  C   -0.367304
    19  C   -0.039496
    20  C   -0.054416
    21  C   -0.458179
    22  S    0.460511
    23  C   -0.194674
    24  H    0.146525
    25  H    0.154091
    26  H    0.140454
    27  H    0.111280
    28  H    0.136716
    29  H    0.150634
    30  H    0.158502
    31  H    0.185054
    32  H    0.161931
    33  H    0.148153
    34  H    0.148838
    35  H    0.128995
    36  H    0.106813
    37  H    0.129644
    38  H    0.134775
    39  H    0.193081
    40  H    0.161610
    41  H    0.178156
    42  H    0.154121
    43  H    0.176738
    44  H    0.113979
 Sum of Mulliken charges =  -0.00000
 Mulliken charges with hydrogens summed into heavy atoms:
               1
     1  C   -0.041322
     2  C    0.132201
     3  C   -0.086055
     4  C    0.097270
     5  C   -0.031232
     6  C   -0.054164
     7  C   -0.037782
     8  C    0.294241
     9  N   -0.610514
    10  C    0.220270
    11  C    0.265255
    12  C   -0.044847
    13  C   -0.043097
    14  C    0.127240
    15  C   -0.095332
    16  C    0.380738
    17  O   -0.442306
    18  C   -0.367304
    19  C    0.138660
    20  C    0.099706
    21  C   -0.281441
    22  S    0.460511
    23  C   -0.080695
 Electronic spatial extent (au):  <R**2>=           9054.3081
 Charge=             -0.0000 electrons
 Dipole moment (field-independent basis, Debye):
    X=             -2.6641    Y=             -1.2878    Z=              0.3934  Tot=              2.9850
 Quadrupole moment (field-independent basis, Debye-Ang):
   XX=           -121.8282   YY=           -130.6003   ZZ=           -144.0644
   XY=              2.1762   XZ=             -0.4294   YZ=              3.7113
 Traceless Quadrupole moment (field-independent basis, Debye-Ang):
   XX=             10.3361   YY=              1.5640   ZZ=            -11.9001
   XY=              2.1762   XZ=             -0.4294   YZ=              3.7113
 Octapole moment (field-independent basis, Debye-Ang**2):
  XXX=           -139.9857  YYY=            -30.4827  ZZZ=             -7.7639  XYY=             24.1606
  XXY=             -6.4002  XXZ=             -2.1794  XZZ=             -9.4327  YZZ=            -14.6124
  YYZ=            -23.7949  XYZ=            -10.5669
 Hexadecapole moment (field-independent basis, Debye-Ang**3):
 XXXX=          -6233.2031 YYYY=          -4026.8247 ZZZZ=           -912.0867 XXXY=            151.3587
 XXXZ=            -17.1387 YYYX=            -57.6813 YYYZ=             43.7910 ZZZX=              8.3802
 ZZZY=             26.2196 XXYY=          -1941.7865 XXZZ=          -1271.8859 YYZZ=           -873.6057
 XXYZ=              8.3263 YYXZ=            -11.6399 ZZXY=            -11.0677
 N-N= 1.965767406359D+03 E-N=-6.979117495554D+03  KE= 1.296752020799D+03
 Unable to Open any file for archive entry.
 1\1\GINC-N2\SP\RB3LYP TD-FC\6-31G\C20H21N1O1S1\HPCMGAC13\13-Jun-2025\0
 \\# td=(50-50,nstates=3) b3lyp/6-31g\\[No Title]\\0,1\C,0,1.218411,4.9
 54117,-0.340624\C,0,1.40455,3.462538,-0.166931\C,0,2.660078,2.866354,-
 0.358757\C,0,2.858305,1.487605,-0.218642\C,0,4.240071,0.916852,-0.4614
 39\C,0,1.761781,0.648928,0.123166\C,0,1.964879,-0.822726,0.301386\C,0,
 1.488356,-1.697256,-0.615919\N,0,1.66405,-3.081433,-0.533335\C,0,0.985
 047,-3.976121,-1.465373\C,0,2.367437,-3.592156,0.564772\C,0,2.871287,-
 2.809779,1.53666\C,0,2.709771,-1.302756,1.549563\C,0,0.492315,1.242738
 ,0.314513\C,0,-0.72856,0.426257,0.696\C,0,-1.63138,0.055843,-0.476722\
 O,0,-1.16663,-0.175913,-1.61605\C,0,-3.07729,-0.080849,-0.256156\C,0,-
 4.004291,-0.469906,-1.195972\C,0,-5.346058,-0.533208,-0.712852\C,0,-5.
 468782,-0.194829,0.608492\S,0,-3.892155,0.233265,1.343147\C,0,0.333529
 ,2.631004,0.170451\H,0,1.985193,5.520996,0.201165\H,0,1.288671,5.24518
 4,-1.397316\H,0,0.23904,5.278861,0.025511\H,0,3.507066,3.491272,-0.633
 606\H,0,4.82795,1.582328,-1.101988\H,0,4.800066,0.790082,0.475102\H,0,
 4.18613,-0.065316,-0.941127\H,0,0.929617,-1.348057,-1.47657\H,0,0.8424
 12,-3.466791,-2.422053\H,0,1.597554,-4.866498,-1.641565\H,0,-0.000509,
 -4.300576,-1.098832\H,0,2.491959,-4.669688,0.569081\H,0,3.429838,-3.27
 2329,2.344377\H,0,2.170753,-0.971928,2.457404\H,0,3.695545,-0.812547,1
 .626295\H,0,-0.41423,-0.522883,1.152988\H,0,-1.31035,0.966544,1.451267
 \H,0,-3.7061,-0.700029,-2.210783\H,0,-6.190214,-0.819616,-1.327643\H,0
 ,-6.358413,-0.158845,1.218307\H,0,-0.649556,3.069027,0.327676\\Version
 =ES64L-G16RevC.02\State=1-A\HF=-1302.6417866\RMSD=4.982e-09\PG=C01 [X(
 C20H21N1O1S1)]\\@
 The archive entry for this job was punched.


 YOU KNOW YOU'VE SPOKEN TOO LONG WHEN THE AUDIENCE STOPS LOOKING AT
 THEIR WATCHES AND STARTS SHAKING THEM.
 Job cpu time:       0 days  0 hours 26 minutes 17.2 seconds.
 Elapsed time:       0 days  0 hours  1 minutes 41.7 seconds.
 File lengths (MBytes):  RWF=    633 Int=      0 D2E=      0 Chk=     21 Scr=      2
 Normal termination of Gaussian 16 at Fri Jun 13 11:27:00 2025.
