 Entering Gaussian System, Link 0=g16
 Input=M1610.gjf
 Output=M1610.log
 Initial command:
 /hpc/softwares/Gaussian/g16/l1.exe "/hpc/home/hpcmgac13/pbs.11119.admin1.x8z/Gau-185361.inp" -scrdir="/hpc/home/hpcmgac13/pbs.11119.admin1.x8z/"
 Default linda workers: n2
 Default is to use  16 SMP processors on each worker.
 Entering Link 1 = /hpc/softwares/Gaussian/g16/l1.exe PID=    185362.
  
 Copyright (c) 1988-2021, Gaussian, Inc.  All Rights Reserved.
  
 This is part of the Gaussian(R) 16 program.  It is based on
 the Gaussian(R) 09 system (copyright 2009, Gaussian, Inc.),
 the Gaussian(R) 03 system (copyright 2003, Gaussian, Inc.),
 the Gaussian(R) 98 system (copyright 1998, Gaussian, Inc.),
 the Gaussian(R) 94 system (copyright 1995, Gaussian, Inc.),
 the Gaussian 92(TM) system (copyright 1992, Gaussian, Inc.),
 the Gaussian 90(TM) system (copyright 1990, Gaussian, Inc.),
 the Gaussian 88(TM) system (copyright 1988, Gaussian, Inc.),
 the Gaussian 86(TM) system (copyright 1986, Carnegie Mellon
 University), and the Gaussian 82(TM) system (copyright 1983,
 Carnegie Mellon University). Gaussian is a federally registered
 trademark of Gaussian, Inc.
  
 This software contains proprietary and confidential information,
 including trade secrets, belonging to Gaussian, Inc.
  
 This software is provided under written license and may be
 used, copied, transmitted, or stored only in accord with that
 written license.
  
 The following legend is applicable only to US Government
 contracts under FAR:
  
                    RESTRICTED RIGHTS LEGEND
  
 Use, reproduction and disclosure by the US Government is
 subject to restrictions as set forth in subparagraphs (a)
 and (c) of the Commercial Computer Software - Restricted
 Rights clause in FAR 52.227-19.
  
 Gaussian, Inc.
 340 Quinnipiac St., Bldg. 40, Wallingford CT 06492
  
  
 ---------------------------------------------------------------
 Warning -- This program may not be used in any manner that
 competes with the business of Gaussian, Inc. or will provide
 assistance to any competitor of Gaussian, Inc.  The licensee
 of this program is prohibited from giving any competitor of
 Gaussian, Inc. access to this program.  By using this program,
 the user acknowledges that Gaussian, Inc. is engaged in the
 business of creating and licensing software in the field of
 computational chemistry and represents and warrants to the
 licensee that it is not a competitor of Gaussian, Inc. and that
 it will not use this program in any manner prohibited above.
 ---------------------------------------------------------------
  

 Cite this work as:
 Gaussian 16, Revision C.02,
 M. J. Frisch, G. W. Trucks, H. B. Schlegel, G. E. Scuseria, 
 M. A. Robb, J. R. Cheeseman, G. Scalmani, V. Barone, 
 G. A. Petersson, H. Nakatsuji, X. Li, M. Caricato, A. V. Marenich, 
 J. Bloino, B. G. Janesko, R. Gomperts, B. Mennucci, H. P. Hratchian, 
 J. V. Ortiz, A. F. Izmaylov, J. L. Sonnenberg, D. Williams-Young, 
 F. Ding, F. Lipparini, F. Egidi, J. Goings, B. Peng, A. Petrone, 
 T. Henderson, D. Ranasinghe, V. G. Zakrzewski, J. Gao, N. Rega, 
 G. Zheng, W. Liang, M. Hada, M. Ehara, K. Toyota, R. Fukuda, 
 J. Hasegawa, M. Ishida, T. Nakajima, Y. Honda, O. Kitao, H. Nakai, 
 T. Vreven, K. Throssell, J. A. Montgomery, Jr., J. E. Peralta, 
 F. Ogliaro, M. J. Bearpark, J. J. Heyd, E. N. Brothers, K. N. Kudin, 
 V. N. Staroverov, T. A. Keith, R. Kobayashi, J. Normand, 
 K. Raghavachari, A. P. Rendell, J. C. Burant, S. S. Iyengar, 
 J. Tomasi, M. Cossi, J. M. Millam, M. Klene, C. Adamo, R. Cammi, 
 J. W. Ochterski, R. L. Martin, K. Morokuma, O. Farkas, 
 J. B. Foresman, and D. J. Fox, Gaussian, Inc., Wallingford CT, 2019.
 
 ******************************************
 Gaussian 16:  ES64L-G16RevC.02  7-Dec-2021
                13-Jun-2025 
 ******************************************
 SetLPE:    new flags="-opt 'Tsnet.Node.lindarsharg: ssh'  -nodelist 'n2.head.cm.mguif.local' -env GAUSS_MDEF=4294967296 -env GAUSS_EXEDIR="/hpc/softwares/Gaussian/g16/bsd:/hpc/softwares/Gaussian/g16""
 Will use up to    1 processors via Linda.
 ----------------------------------
 # td=(50-50,nstates=3) b3lyp/6-31g
 ----------------------------------
 1/38=1,172=1/1;
 2/12=2,17=6,18=5,40=1/2;
 3/5=1,6=6,11=9,25=1,30=1,74=-5/1,2,3,8;
 4//1;
 5/5=2,38=5/2;
 8/6=1,10=2,108=3/1;
 9/41=3,42=1,48=2,70=2/14;
 6/7=2,8=2,9=2,10=2/1;
 99/5=1,9=1/99;
 ----------
 [No Title]
 ----------
 Symbolic Z-matrix:
 Charge =  0 Multiplicity = 1
 C                     3.36711   4.28645   0.35413 
 C                     2.91866   2.84209   0.30872 
 C                     3.54205   1.86959   1.10312 
 C                     3.15798   0.52325   1.06499 
 C                     3.88192  -0.47529   1.94466 
 C                     2.10744   0.11421   0.20011 
 C                     1.67184  -1.31891   0.18944 
 C                     2.06743  -2.16637  -0.78857 
 N                     1.63678  -3.49656  -0.88313 
 C                     2.02059  -4.31295  -2.03304 
 C                     0.57306  -3.89043  -0.05803 
 C                     0.1211   -3.12532   0.95423 
 C                     0.79046  -1.81975   1.33734 
 C                     1.47395   1.0906   -0.6102 
 C                     0.34188   0.72896  -1.58003 
 C                    -1.05309   0.84661  -0.98722 
 C                    -1.72667  -0.24368  -0.48196 
 C                    -3.01267  -0.03937   0.08125 
 C                    -3.64026   1.24832   0.1288 
 C                    -2.95238   2.37135  -0.41669 
 C                    -1.71631   2.12949  -0.94005 
 F                    -1.02927   3.2015   -1.50498 
 N                    -4.84975   1.21789   0.70201 
 O                    -5.07499  -0.12461   1.06821 
 N                    -3.83136  -0.94378   0.64247 
 O                    -3.7906   -2.17183   0.86852 
 C                     1.88733   2.43142  -0.54222 
 H                     3.4924    4.63493   1.38607 
 H                     4.33295   4.4214   -0.15125 
 H                     2.64338   4.9438   -0.13794 
 H                     4.35252   2.16416   1.76579 
 H                     4.82909  -0.0615    2.30451 
 H                     3.28691  -0.74421   2.82737 
 H                     4.09438  -1.40495   1.40713 
 H                     2.73402  -1.84216  -1.58126 
 H                     3.0582   -4.10077  -2.30504 
 H                     1.95304  -5.37199  -1.76978 
 H                     1.38558  -4.13259  -2.91416 
 H                     0.12407  -4.84527  -0.30765 
 H                    -0.72918  -3.46465   1.53616 
 H                     0.03896  -1.05676   1.59062 
 H                     1.38753  -1.94304   2.26004 
 H                     0.41066   1.38517  -2.45358 
 H                     0.47437  -0.29716  -1.92687 
 H                    -1.29221  -1.2367   -0.4981 
 H                    -3.39346   3.35816  -0.42033 
 H                     1.38688   3.16749  -1.16273 
 
                          Input orientation:                          
 ---------------------------------------------------------------------
 Center     Atomic      Atomic             Coordinates (Angstroms)
 Number     Number       Type             X           Y           Z
 ---------------------------------------------------------------------
      1          6           0        3.367109    4.286451    0.354127
      2          6           0        2.918663    2.842094    0.308715
      3          6           0        3.542050    1.869585    1.103118
      4          6           0        3.157977    0.523252    1.064990
      5          6           0        3.881921   -0.475293    1.944660
      6          6           0        2.107441    0.114210    0.200107
      7          6           0        1.671837   -1.318912    0.189435
      8          6           0        2.067426   -2.166372   -0.788568
      9          7           0        1.636777   -3.496556   -0.883132
     10          6           0        2.020587   -4.312946   -2.033037
     11          6           0        0.573063   -3.890426   -0.058034
     12          6           0        0.121095   -3.125319    0.954228
     13          6           0        0.790456   -1.819753    1.337344
     14          6           0        1.473954    1.090599   -0.610198
     15          6           0        0.341884    0.728961   -1.580028
     16          6           0       -1.053087    0.846613   -0.987218
     17          6           0       -1.726667   -0.243681   -0.481957
     18          6           0       -3.012672   -0.039368    0.081245
     19          6           0       -3.640259    1.248322    0.128796
     20          6           0       -2.952384    2.371352   -0.416693
     21          6           0       -1.716312    2.129494   -0.940045
     22          9           0       -1.029266    3.201504   -1.504981
     23          7           0       -4.849752    1.217892    0.702009
     24          8           0       -5.074991   -0.124612    1.068207
     25          7           0       -3.831362   -0.943779    0.642470
     26          8           0       -3.790604   -2.171828    0.868523
     27          6           0        1.887327    2.431422   -0.542224
     28          1           0        3.492398    4.634928    1.386073
     29          1           0        4.332945    4.421399   -0.151252
     30          1           0        2.643378    4.943804   -0.137944
     31          1           0        4.352516    2.164155    1.765787
     32          1           0        4.829087   -0.061499    2.304514
     33          1           0        3.286906   -0.744207    2.827374
     34          1           0        4.094380   -1.404950    1.407127
     35          1           0        2.734024   -1.842156   -1.581259
     36          1           0        3.058200   -4.100769   -2.305038
     37          1           0        1.953043   -5.371986   -1.769780
     38          1           0        1.385584   -4.132590   -2.914164
     39          1           0        0.124067   -4.845266   -0.307654
     40          1           0       -0.729177   -3.464654    1.536156
     41          1           0        0.038961   -1.056759    1.590619
     42          1           0        1.387527   -1.943044    2.260038
     43          1           0        0.410656    1.385167   -2.453584
     44          1           0        0.474371   -0.297163   -1.926866
     45          1           0       -1.292209   -1.236698   -0.498098
     46          1           0       -3.393458    3.358160   -0.420329
     47          1           0        1.386880    3.167493   -1.162732
 ---------------------------------------------------------------------
                    Distance matrix (angstroms):
                    1          2          3          4          5
     1  C    0.000000
     2  C    1.513054   0.000000
     3  C    2.536303   1.401949   0.000000
     4  C    3.835457   2.450765   1.400564   0.000000
     5  C    5.046685   3.822203   2.514390   1.514928   0.000000
     6  C    4.360972   2.848022   2.440261   1.420902   2.557295
     7  C    5.858427   4.345431   3.807759   2.523644   2.945671
     8  C    6.680857   5.197438   4.694885   3.443698   3.690891
     9  N    8.068461   6.575881   6.030814   4.718907   4.707984
    10  C    9.025592   7.581882   7.097465   5.854933   5.832171
    11  C    8.650889   7.138849   6.583379   5.236747   5.159696
    12  C    8.113634   6.622167   6.055920   4.748367   4.706103
    13  C    6.700118   5.226869   4.608400   3.342006   3.425429
    14  C    3.837633   2.449351   2.796300   2.442145   3.844167
    15  C    5.054570   3.830466   4.329129   3.868955   5.138630
    16  C    5.759325   4.629923   5.150850   4.695655   5.890471
    17  C    6.867873   5.632607   5.893873   5.180828   6.115421
    18  C    7.712897   6.598129   6.903094   6.273851   7.155261
    19  C    7.640956   6.752180   7.274671   6.900594   7.927888
    20  C    6.648140   5.934392   6.688742   6.553424   7.770914
    21  C    5.671729   4.852854   5.647339   5.509889   6.815178
    22  F    4.895049   4.359451   5.428915   5.595604   7.038367
    23  N    8.778034   7.946130   8.426620   8.045993   8.980711
    24  O    9.551777   8.560180   8.844854   8.258420   9.006521
    25  N    8.902608   7.746423   7.905341   7.154129   7.836448
    26  O    9.654368   8.394466   8.375910   7.455524   7.931201
    27  C    2.536599   1.398715   2.400192   2.799786   4.314161
    28  H    1.096379   2.168900   2.780225   4.137730   5.155396
    29  H    1.098389   2.169324   2.951392   4.249158   5.345452
    30  H    1.094547   2.166211   3.434919   4.610113   5.936147
    31  H    2.732755   2.153740   1.087546   2.147231   2.687032
    32  H    4.984582   4.007965   2.613217   2.161241   1.094461
    33  H    5.606327   4.397818   3.141666   2.174643   1.097972
    34  H    5.833505   4.541608   3.334677   2.170685   1.094688
    35  H    6.458045   5.054532   4.651431   3.574566   3.951973
    36  H    8.804092   7.419873   6.891645   5.722641   5.646461
    37  H    9.989793   8.527818   7.951027   6.651437   6.441680
    38  H    9.245995   7.834762   7.537573   6.375885   6.573864
    39  H    9.713060   8.202754   7.665645   6.317416   6.187976
    40  H    8.846264   7.388398   6.847263   5.588860   5.510479
    41  H    6.415245   5.013683   4.590510   3.535673   3.902793
    42  H    6.808660   5.389767   4.529522   3.262706   2.911315
    43  H    5.004129   4.005375   4.763446   4.546541   5.903858
    44  H    5.880508   4.563696   4.825583   4.101954   5.160605
    45  H    7.276036   5.917680   5.965144   5.034364   5.772211
    46  H    6.867807   6.375006   7.255206   7.291377   8.556850
    47  H    2.733905   2.148814   3.385764   3.884783   5.399167
                    6          7          8          9         10
     6  C    0.000000
     7  C    1.497900   0.000000
     8  C    2.485987   1.353207   0.000000
     9  N    3.799021   2.427707   1.401353   0.000000
    10  C    4.959253   3.745030   2.481668   1.461535   0.000000
    11  C    4.296285   2.807353   2.395655   1.402643   2.484851
    12  C    3.874121   2.500563   2.783006   2.410602   3.733936
    13  C    2.601532   1.531460   2.504056   2.908340   4.369062
    14  C    1.418180   2.546432   3.315401   4.598151   5.614408
    15  C    2.581471   3.015553   3.462204   4.474082   5.333300
    16  C    3.454720   3.674129   4.342251   5.109728   6.096085
    17  C    3.910714   3.627219   4.264492   4.696264   5.745144
    18  C    5.123795   4.857321   5.575672   5.873632   6.933062
    19  C    5.858955   5.900231   6.714116   7.168331   8.224743
    20  C    5.574671   5.947172   6.777000   7.463934   8.486628
    21  C    4.470168   4.964553   5.726612   6.549724   7.527555
    22  F    4.719920   5.531832   6.238336   7.235917   8.126955
    23  N    7.062050   7.016354   7.843623   8.173968   9.234295
    24  O    7.238644   6.907842   7.657057   7.760513   8.803811
    25  N    6.048505   5.534543   6.191793   6.224522   7.263259
    26  O    6.360793   5.570178   6.087897   5.854884   6.839106
    27  C    2.443149   3.827109   4.607910   5.943056   6.908457
    28  H    4.874578   6.339921   7.281297   8.643706   9.691284
    29  H    4.860885   6.336303   6.995532   8.396367   9.229133
    30  H    4.870984   6.346076   7.163074   8.532774   9.469248
    31  H    3.419648   4.669334   5.522665   6.814372   7.862684
    32  H    3.444816   4.002858   4.650206   5.670233   6.691549
    33  H    3.005087   3.146022   4.072434   4.905732   6.161417
    34  H    2.777170   2.712728   3.083729   3.957261   4.959011
    35  H    2.719051   2.130113   1.085278   2.104370   2.611111
    36  H    4.994571   3.985364   2.650133   2.099365   1.093455
    37  H    5.831178   4.510544   3.354373   2.098430   1.093358
    38  H    5.315550   4.198935   2.974740   2.143065   1.100973
    39  H    5.365445   3.883022   3.344308   2.106771   2.618606
    40  H    4.758119   3.490377   3.861459   3.384038   4.584751
    41  H    2.753779   2.167562   3.317596   3.824274   5.259323
    42  H    2.998981   2.181231   3.131475   3.514974   4.944461
    43  H    3.396540   3.985997   4.258004   5.272657   5.936095
    44  H    2.712961   2.637542   2.706933   3.560433   4.304482
    45  H    3.724253   3.043851   3.497973   3.719431   4.774302
    46  H    6.416233   6.921274   7.776716   8.514962   9.526730
    47  H    3.420391   4.694399   5.390107   6.674592   7.557512
                   11         12         13         14         15
    11  C    0.000000
    12  C    1.346974   0.000000
    13  C    2.506397   1.516352   0.000000
    14  C    5.091866   4.695915   3.567946   0.000000
    15  C    4.869152   4.618081   3.899772   1.533928   0.000000
    16  C    5.093848   4.574293   3.988953   2.566634   1.520266
    17  C    4.332115   3.712235   3.482782   3.469975   2.535882
    18  C    5.263795   4.483937   4.383074   4.678112   3.821414
    19  C    6.647836   5.827337   5.523125   5.169735   4.364319
    20  C    7.194948   6.445083   5.886498   4.611967   3.860440
    21  C    6.500663   5.880255   5.202590   3.371335   2.570456
    22  F    7.413271   6.884746   6.050060   3.394505   2.828277
    23  N    7.488625   6.605787   6.437615   6.459671   5.692085
    24  O    6.881155   6.001378   6.111416   6.868949   6.089686
    25  N    5.345315   4.525287   4.755143   5.818440   5.015330
    26  O    4.780552   4.027143   4.618426   6.367544   5.611367
    27  C    6.475144   6.019661   4.775813   1.404743   2.522658
    28  H    9.126315   8.471931   6.997555   4.541088   5.829243
    29  H    9.123148   8.712905   7.329197   4.413467   5.621749
    30  H    9.073930   8.524406   7.166275   4.054351   5.014118
    31  H    7.366718   6.822176   5.361283   3.883806   5.416588
    32  H    6.193227   5.777149   4.509702   4.591274   5.987444
    33  H    5.058579   4.381864   3.099879   4.297698   5.501688
    34  H    4.552358   4.353364   3.330592   4.142945   5.249562
    35  H    3.344455   3.860389   3.506594   3.336433   3.511834
    36  H    3.356959   4.494542   4.859284   5.686178   5.588408
    37  H    2.651309   3.977910   4.860472   6.583249   6.312954
    38  H    2.979314   4.192611   4.876342   5.709446   5.148195
    39  H    1.084263   2.133207   3.507680   6.094934   5.721747
    40  H    2.102035   1.084782   2.248224   5.496449   5.333309
    41  H    3.321595   2.165798   1.100478   3.393221   3.651515
    42  H    3.135141   2.169508   1.105920   4.177166   4.793651
    43  H    5.796285   5.660522   4.978644   2.148359   1.094731
    44  H    4.051396   4.052650   3.615696   2.158394   1.091229
    45  H    3.273403   2.770121   2.836599   3.616702   2.775725
    46  H    8.270825   7.501799   6.885153   5.373042   4.712788
    47  H    7.190054   6.758936   5.610590   2.150899   2.685627
                   16         17         18         19         20
    16  C    0.000000
    17  C    1.377585   0.000000
    18  C    2.401364   1.418714   0.000000
    19  C    2.846105   2.502184   1.433273   0.000000
    20  C    2.501531   2.888778   2.462346   1.425457   0.000000
    21  C    1.444949   2.417005   2.725352   2.370750   1.363916
    22  F    2.411256   3.660908   4.117434   3.647113   2.360488
    23  N    4.172050   3.645769   2.311042   1.338795   2.486357
    24  O    4.619931   3.691674   2.287907   2.196792   3.597252
    25  N    3.685132   2.486808   1.342828   2.259577   3.589502
    26  O    4.477584   3.130716   2.402576   3.502460   4.795297
    27  C    3.369818   4.496750   5.522998   5.692469   4.841711
    28  H    6.375365   7.384375   8.115883   7.995289   7.064627
    29  H    6.518226   7.654491   8.597127   8.585967   7.572923
    30  H    5.583197   6.791586   7.541283   7.294644   6.165044
    31  H    6.207697   6.914224   7.870145   8.209929   7.626776
    32  H    6.801481   7.125694   8.150865   8.841900   8.595058
    33  H    5.993109   6.028110   6.908162   7.696630   7.691516
    34  H    6.107278   6.229107   7.357511   8.276389   8.200223
    35  H    4.682368   4.864294   6.248078   7.287443   7.172524
    36  H    6.566271   6.410593   7.684062   8.910986   9.032238
    37  H    6.951273   6.441915   7.518074   8.872322   9.265708
    38  H    5.869642   5.543045   6.713538   7.966989   8.207106
    39  H    5.851922   4.962880   5.752133   7.175824   7.845764
    40  H    5.005932   3.929686   4.366200   5.715523   6.543335
    41  H    3.385356   2.841498   3.553274   4.581155   4.972866
    42  H    4.927825   4.483813   5.266201   6.325001   6.679351
    43  H    2.140751   3.332958   4.491529   4.805968   4.053582
    44  H    2.127038   2.633475   4.032175   4.852262   4.598287
    45  H    2.153277   1.084019   2.174679   3.475868   3.972510
    46  H    3.479449   3.969288   3.455397   2.194052   1.080902
    47  H    3.372051   4.668376   5.584576   5.533840   4.474330
                   21         22         23         24         25
    21  C    0.000000
    22  F    1.392979   0.000000
    23  N    3.653191   4.837524   0.000000
    24  O    4.516060   5.835429   1.409663   0.000000
    25  N    4.052505   5.444875   2.390290   1.548838   0.000000
    26  O    5.106366   6.490856   3.555239   2.424998   1.249346
    27  C    3.638081   3.166456   6.957658   7.589511   6.745286
    28  H    6.230464   5.555029   9.040771   9.805836   9.236470
    29  H    6.516789   5.663394   9.762809  10.519627   9.801583
    30  H    5.250772   4.288673   8.410407   9.312189   8.786065
    31  H    6.644803   6.382601   9.311755   9.726405   8.825925
    32  H    7.626917   7.712311   9.893674   9.981142   8.862516
    33  H    6.890849   7.277862   8.635520   8.567373   7.448716
    34  H    7.194835   7.480076   9.347405   9.264529   7.975886
    35  H    5.999221   6.293384   8.490634   8.423203   6.989731
    36  H    7.967142   8.406584   9.993307   9.661128   8.131448
    37  H    8.391950   9.081245   9.788476   9.218588   7.673807
    38  H    7.261722   7.848964   8.976847   8.582668   7.073520
    39  H    7.241146   8.216707   7.906970   7.155961   5.636467
    40  H    6.196814   7.333228   6.292947   5.500996   4.095978
    41  H    4.431416   5.371839   5.464721   5.224396   3.986371
    42  H    6.038204   6.817817   7.163981   6.818453   5.554445
    43  H    2.714556   2.504457   6.136582   6.691395   5.744933
    44  H    3.414904   3.831394   6.128023   6.308380   5.055585
    45  H    3.421466   4.558573   4.485686   4.242580   2.798927
    46  H    2.143022   2.605842   2.821557   4.144031   4.452862
    47  H    3.279761   2.440503   6.795129   7.587544   6.884138
                   26         27         28         29         30
    26  O    0.000000
    27  C    7.444395   0.000000
    28  H    9.982079   3.339165   0.000000
    29  H   10.512023   3.177092   1.765073   0.000000
    30  H    9.645793   2.654641   1.771685   1.768536   0.000000
    31  H    9.269101   3.387551   2.643616   2.961515   3.777803
    32  H    8.989696   4.792966   4.968571   5.135496   5.982974
    33  H    7.481066   4.837110   5.572672   6.053916   6.446760
    34  H    7.940477   4.836197   6.069840   6.035876   6.693230
    35  H    6.977169   4.478834   7.164692   6.620694   6.938345
    36  H    7.790919   6.866438   9.493431   8.882067   9.309816
    37  H    7.084570   7.899645  10.605062  10.207544  10.466851
    38  H    6.704195   6.997435   9.989999   9.459987   9.574465
    39  H    4.884190   7.490948  10.202374  10.178909  10.109482
    40  H    3.389612   6.777128   9.134958   9.521673   9.212975
    41  H    4.053439   4.486968   6.660583   7.175140   6.765920
    42  H    5.366721   5.219044   6.961610   7.415925   7.399740
    43  H    6.429556   2.632205   5.899241   5.468436   4.796992
    44  H    5.433100   3.370290   6.664051   6.348718   5.947484
    45  H    2.997349   4.854534   7.805034   7.986033   7.336018
    46  H    5.692067   5.362872   7.232443   7.803857   6.247991
    47  H    7.709779   1.085024   3.617040   3.357778   2.405049
                   31         32         33         34         35
    31  H    0.000000
    32  H    2.338992   0.000000
    33  H    3.274303   1.765728   0.000000
    34  H    3.596357   1.774812   1.762299   0.000000
    35  H    5.465598   4.760174   4.576813   3.312426   0.000000
    36  H    7.582621   6.379633   6.136813   4.703326   2.393800
    37  H    8.663205   7.285106   6.658029   5.515019   3.620107
    38  H    8.387707   7.460971   6.932635   5.783697   2.973384
    39  H    8.444579   7.200351   6.053977   5.526268   4.177633
    40  H    7.586819   6.562479   5.019661   5.246497   4.934018
    41  H    5.386254   4.944239   3.489470   4.074473   4.235684
    42  H    5.089649   3.922566   2.316618   2.888608   4.071707
    43  H    5.826506   6.652434   6.379308   6.021600   4.071192
    44  H    5.893537   6.076485   5.541931   5.044518   2.759072
    45  H    6.968063   6.834178   5.680634   5.716077   4.213119
    46  H    8.136637   9.312845   8.485532   9.060603   8.120165
    47  H    4.286946   5.856362   5.901902   5.902708   5.204474
                   36         37         38         39         40
    36  H    0.000000
    37  H    1.767446   0.000000
    38  H    1.780363   1.779811   0.000000
    39  H    3.626700   2.400083   2.982151   0.000000
    40  H    5.431725   4.664915   4.972293   2.456369   0.000000
    41  H    5.792922   5.794582   5.618470   4.238333   2.528035
    42  H    5.318538   5.321361   5.618406   4.075815   2.705501
    43  H    6.093197   6.964601   5.622122   6.595866   6.382633
    44  H    4.613741   5.288192   4.063935   4.840434   4.845002
    45  H    5.513075   5.408275   4.625380   3.881220   3.069036
    46  H   10.040500  10.325771   9.228748   8.926471   7.581360
    47  H    7.544919   8.579729   7.507245   8.156602   7.466396
                   41         42         43         44         45
    41  H    0.000000
    42  H    1.747070   0.000000
    43  H    4.738854   5.852307   0.000000
    44  H    3.624813   4.590528   1.764008   0.000000
    45  H    2.483371   3.909888   3.687526   2.458640   0.000000
    46  H    5.942804   7.625284   4.743217   5.530926   5.053119
    47  H    5.219400   6.150849   2.407488   3.663388   5.197707
                   46         47
    46  H    0.000000
    47  H    4.841399   0.000000
 Stoichiometry    C21H20FN3O2
 Framework group  C1[X(C21H20FN3O2)]
 Deg. of freedom   135
 Full point group                 C1      NOp   1
 Largest Abelian subgroup         C1      NOp   1
 Largest concise Abelian subgroup C1      NOp   1
                         Standard orientation:                         
 ---------------------------------------------------------------------
 Center     Atomic      Atomic             Coordinates (Angstroms)
 Number     Number       Type             X           Y           Z
 ---------------------------------------------------------------------
      1          6           0        3.367110   -4.286451   -0.354127
      2          6           0        2.918663   -2.842094   -0.308715
      3          6           0        3.542050   -1.869585   -1.103118
      4          6           0        3.157977   -0.523252   -1.064990
      5          6           0        3.881921    0.475294   -1.944660
      6          6           0        2.107441   -0.114210   -0.200107
      7          6           0        1.671837    1.318912   -0.189435
      8          6           0        2.067426    2.166372    0.788568
      9          7           0        1.636776    3.496556    0.883132
     10          6           0        2.020586    4.312946    2.033037
     11          6           0        0.573062    3.890426    0.058034
     12          6           0        0.121094    3.125319   -0.954228
     13          6           0        0.790456    1.819753   -1.337344
     14          6           0        1.473954   -1.090599    0.610198
     15          6           0        0.341884   -0.728961    1.580028
     16          6           0       -1.053087   -0.846613    0.987218
     17          6           0       -1.726667    0.243681    0.481957
     18          6           0       -3.012672    0.039368   -0.081245
     19          6           0       -3.640259   -1.248323   -0.128796
     20          6           0       -2.952384   -2.371352    0.416693
     21          6           0       -1.716312   -2.129494    0.940045
     22          9           0       -1.029266   -3.201504    1.504981
     23          7           0       -4.849752   -1.217893   -0.702009
     24          8           0       -5.074991    0.124611   -1.068207
     25          7           0       -3.831362    0.943778   -0.642470
     26          8           0       -3.790604    2.171827   -0.868523
     27          6           0        1.887327   -2.431422    0.542224
     28          1           0        3.492399   -4.634928   -1.386073
     29          1           0        4.332946   -4.421398    0.151252
     30          1           0        2.643379   -4.943804    0.137944
     31          1           0        4.352516   -2.164154   -1.765787
     32          1           0        4.829087    0.061500   -2.304514
     33          1           0        3.286906    0.744207   -2.827374
     34          1           0        4.094380    1.404951   -1.407127
     35          1           0        2.734024    1.842156    1.581259
     36          1           0        3.058199    4.100769    2.305038
     37          1           0        1.953042    5.371986    1.769780
     38          1           0        1.385583    4.132590    2.914164
     39          1           0        0.124066    4.845266    0.307654
     40          1           0       -0.729178    3.464654   -1.536156
     41          1           0        0.038961    1.056759   -1.590619
     42          1           0        1.387527    1.943044   -2.260038
     43          1           0        0.410656   -1.385167    2.453584
     44          1           0        0.474371    0.297163    1.926866
     45          1           0       -1.292209    1.236698    0.498098
     46          1           0       -3.393458   -3.358161    0.420329
     47          1           0        1.386880   -3.167493    1.162732
 ---------------------------------------------------------------------
 Rotational constants (GHZ):           0.2181308           0.1586121           0.1070149
 Standard basis: 6-31G (6D, 7F)
 There are   283 symmetry adapted cartesian basis functions of A   symmetry.
 There are   283 symmetry adapted basis functions of A   symmetry.
   283 basis functions,   674 primitive gaussians,   283 cartesian basis functions
    96 alpha electrons       96 beta electrons
       nuclear repulsion energy      2429.3731267086 Hartrees.
 NAtoms=   47 NActive=   47 NUniq=   47 SFac= 1.00D+00 NAtFMM=   60 NAOKFM=F Big=F
 Integral buffers will be    131072 words long.
 Regular integral format.
 Two-electron integral symmetry is turned on.
 One-electron integrals computed using PRISM.
 NBasis=   283 RedAO= T EigKep=  4.37D-04  NBF=   283
 NBsUse=   283 1.00D-06 EigRej= -1.00D+00 NBFU=   283
 ExpMin= 1.61D-01 ExpMax= 7.00D+03 ExpMxC= 1.05D+03 IAcc=3 IRadAn=         5 AccDes= 0.00D+00
 Harris functional with IExCor=  402 and IRadAn=       5 diagonalized for initial guess.
 HarFok:  IExCor=  402 AccDes= 0.00D+00 IRadAn=         5 IDoV= 1 UseB2=F ITyADJ=14
 ICtDFT=  3500011 ScaDFX=  1.000000  1.000000  1.000000  1.000000
 FoFCou: FMM=F IPFlag=           0 FMFlag=      100000 FMFlg1=           0
         NFxFlg=           0 DoJE=T BraDBF=F KetDBF=T FulRan=T
         wScrn=  0.000000 ICntrl=       500 IOpCl=  0 I1Cent=   200000004 NGrid=           0
         NMat0=    1 NMatS0=      1 NMatT0=    0 NMatD0=    1 NMtDS0=    0 NMtDT0=    0
 Petite list used in FoFCou.
 Requested convergence on RMS density matrix=1.00D-08 within 128 cycles.
 Requested convergence on MAX density matrix=1.00D-06.
 Requested convergence on             energy=1.00D-06.
 No special actions if energy rises.
 Integral accuracy reduced to 1.0D-05 until final iterations.
 EnCoef did     2 forward-backward iterations
 EnCoef did     6 forward-backward iterations
 Initial convergence to 1.0D-05 achieved.  Increase integral accuracy.
 EnCoef did     7 forward-backward iterations
 SCF Done:  E(RB3LYP) =  -1226.30748239     A.U. after   19 cycles
            NFock= 19  Conv=0.48D-08     -V/T= 2.0055
 DoSCS=F DFT=T ScalE2(SS,OS)=  1.000000  1.000000
 ExpMin= 1.61D-01 ExpMax= 7.00D+03 ExpMxC= 1.05D+03 IAcc=3 IRadAn=         5 AccDes= 0.00D+00
 HarFok:  IExCor=  205 AccDes= 0.00D+00 IRadAn=         5 IDoV=-2 UseB2=F ITyADJ=14
 ICtDFT= 12500011 ScaDFX=  1.000000  1.000000  1.000000  1.000000
 GSVD:  LWork=        -945 too small for GESVD, short by        4050 words or        4050 for optimal perf.
 Range of M.O.s used for correlation:    28   283
 NBasis=   283 NAE=    96 NBE=    96 NFC=    27 NFV=     0
 NROrb=    256 NOA=    69 NOB=    69 NVA=   187 NVB=   187

 **** Warning!!: The largest alpha MO coefficient is  0.12999767D+02


 **** Warning!!: The smallest alpha delta epsilon is  0.72148771D-01

 Keep R1, R2, and R3 ints in memory in canonical form, NReq=2571865421.
 Orbital symmetries:
       Occupied  (A) (A) (A) (A) (A) (A) (A) (A) (A) (A) (A) (A)
                 (A) (A) (A) (A) (A) (A) (A) (A) (A) (A) (A) (A)
                 (A) (A) (A) (A) (A) (A) (A) (A) (A) (A) (A) (A)
                 (A) (A) (A) (A) (A) (A) (A) (A) (A) (A) (A) (A)
                 (A) (A) (A) (A) (A) (A) (A) (A) (A) (A) (A) (A)
                 (A) (A) (A) (A) (A) (A) (A) (A) (A) (A) (A) (A)
                 (A) (A) (A) (A) (A) (A) (A) (A) (A) (A) (A) (A)
                 (A) (A) (A) (A) (A) (A) (A) (A) (A) (A) (A) (A)
       Virtual   (A) (A) (A) (A) (A) (A) (A) (A) (A) (A) (A) (A)
                 (A) (A) (A) (A) (A) (A) (A) (A) (A) (A) (A) (A)
                 (A) (A) (A) (A) (A) (A) (A) (A) (A) (A) (A) (A)
                 (A) (A) (A) (A) (A) (A) (A) (A) (A) (A) (A) (A)
                 (A) (A) (A) (A) (A) (A) (A) (A) (A) (A) (A) (A)
                 (A) (A) (A) (A) (A) (A) (A) (A) (A) (A) (A) (A)
                 (A) (A) (A) (A) (A) (A) (A) (A) (A) (A) (A) (A)
                 (A) (A) (A) (A) (A) (A) (A) (A) (A) (A) (A) (A)
                 (A) (A) (A) (A) (A) (A) (A) (A) (A) (A) (A) (A)
                 (A) (A) (A) (A) (A) (A) (A) (A) (A) (A) (A) (A)
                 (A) (A) (A) (A) (A) (A) (A) (A) (A) (A) (A) (A)
                 (A) (A) (A) (A) (A) (A) (A) (A) (A) (A) (A) (A)
                 (A) (A) (A) (A) (A) (A) (A) (A) (A) (A) (A) (A)
                 (A) (A) (A) (A) (A) (A) (A) (A) (A) (A) (A) (A)
                 (A) (A) (A) (A) (A) (A) (A) (A) (A) (A) (A) (A)
                 (A) (A) (A) (A) (A) (A) (A)
    24 initial guesses have been made.
 Convergence on wavefunction:    0.001000000000000
 Iteration     1 Dimension    24 NMult     0 NNew     24
 CISAX will form    24 AO SS matrices at one time.
 New state      1 was old state      2
 New state      2 was old state      1
 New state      3 was old state      4
 New state      4 was old state      6
 New state      6 was old state      8
 New state      8 was old state     24
 New state      9 was old state     18
 New state     10 was old state     22
 New state     11 was old state      9
 New state     12 was old state     10
 Vector   6 SDiff=7.97D+00 TDiff=8.02D+00 assumed to be singlet.
 Vector  12 SDiff=8.01D+00 TDiff=7.90D+00 assumed to be triplet.
 Iteration     2 Dimension    36 NMult    24 NNew     12
 New state      1 was old state      3
 New state      2 was old state      1
 New state      3 was old state      2
 New state      6 was old state      7
 Iteration     3 Dimension    48 NMult    36 NNew     12
 Iteration     4 Dimension    58 NMult    48 NNew     10
 Iteration     5 Dimension    66 NMult    58 NNew      8
 Iteration     6 Dimension    72 NMult    66 NNew      6
 Iteration     7 Dimension    78 NMult    72 NNew      6
 Iteration     8 Dimension    82 NMult    78 NNew      4
 Iteration     9 Dimension    84 NMult    82 NNew      2
 Iteration    10 Dimension    86 NMult    84 NNew      2
 Iteration    11 Dimension    88 NMult    86 NNew      2
 Iteration    12 Dimension    90 NMult    88 NNew      2
 ***********************************************************************
 Excited states from <AA,BB:AA,BB> singles matrix:
 ***********************************************************************
 
 Ground to excited state transition densities written to RWF  633
 Ground to excited state transition electric dipole moments (Au):
       state          X           Y           Z        Dip. S.      Osc.
         1         0.0000      0.0000      0.0000      0.0000      0.0000
         2         0.0000     -0.0000      0.0000      0.0000      0.0000
         3        -0.1340     -0.0626      0.0152      0.0221      0.0008
         4        -0.0000      0.0000      0.0000      0.0000      0.0000
         5         0.0695     -0.0435     -0.0113      0.0068      0.0005
         6        -0.2653      0.5013     -0.0064      0.3217      0.0243
 Ground to excited state transition velocity dipole moments (Au):
       state          X           Y           Z        Dip. S.      Osc.
         1        -0.0000      0.0000     -0.0000      0.0000      0.0000
         2         0.0000      0.0000     -0.0000      0.0000      0.0000
         3         0.0079      0.0051     -0.0023      0.0001      0.0012
         4        -0.0000      0.0000      0.0000      0.0000      0.0000
         5        -0.0077      0.0024      0.0016      0.0001      0.0004
         6         0.0266     -0.0442     -0.0012      0.0027      0.0156
 Ground to excited state transition magnetic dipole moments (Au):
       state          X           Y           Z
         1         0.0000      0.0000     -0.0000
         2         0.0000      0.0000      0.0000
         3         0.0073     -0.0325      0.0478
         4         0.0000     -0.0000     -0.0000
         5        -0.0746     -0.0185     -0.0649
         6         0.1788      0.0572      0.1043
 Ground to excited state transition velocity quadrupole moments (Au):
       state          XX          YY          ZZ          XY          XZ          YZ
         1         0.0000      0.0000      0.0000      0.0000     -0.0000     -0.0000
         2         0.0000      0.0000      0.0000      0.0000     -0.0000      0.0000
         3        -0.0251      0.0359      0.0083      0.0053     -0.0063     -0.0062
         4         0.0000      0.0000      0.0000     -0.0000      0.0000      0.0000
         5         0.0057      0.0103     -0.0062     -0.0606      0.0092     -0.0054
         6         0.0505      0.0582      0.0213      0.2302     -0.0526      0.0283
 <0|del|b> * <b|rxdel|0> + <0|del|b> * <b|delr+rdel|0>
 Rotatory Strengths (R) in cgs (10**-40 erg-esu-cm/Gauss)
       state          XX          YY          ZZ    R(velocity)    E-M Angle
         1         0.0000      0.0000     -0.0000      0.0000       90.00
         2        -0.0000      0.0000      0.0000     -0.0000       90.00
         3        -1.7052     -0.5959     -0.5946     -0.9652      112.62
         4        -0.0000     -0.0000     -0.0000     -0.0000       90.00
         5        -0.8637      1.9948      1.6703      0.9338       58.81
         6       -16.3696     17.6014     11.8138      4.3485       79.11
 1/2[<0|r|b>*<b|rxdel|0> + (<0|rxdel|b>*<b|r|0>)*]
 Rotatory Strengths (R) in cgs (10**-40 erg-esu-cm/Gauss)
       state          XX          YY          ZZ     R(length)
         1        -0.0000     -0.0000      0.0000     -0.0000
         2        -0.0000      0.0000     -0.0000      0.0000
         3         0.6936     -1.4419     -0.5133     -0.4205
         4         0.0000      0.0000      0.0000      0.0000
         5         3.6657     -0.5685     -0.5171      0.8600
         6        33.5318    -20.2838      0.4728      4.5736
  1/2[<0|del|b>*<b|r|0> + (<0|r|b>*<b|del|0>)*] (Au)
       state          X           Y           Z        Dip. S.   Osc.(frdel)
         1        -0.0000      0.0000     -0.0000      0.0000      0.0000
         2         0.0000     -0.0000     -0.0000      0.0000      0.0000
         3        -0.0011     -0.0003     -0.0000      0.0014      0.0009
         4         0.0000      0.0000      0.0000     -0.0000     -0.0000
         5        -0.0005     -0.0001     -0.0000      0.0007      0.0004
         6        -0.0070     -0.0222      0.0000      0.0292      0.0195

 Excitation energies and oscillator strengths:
 
 Excited State   1:      Triplet-A      0.9123 eV 1359.00 nm  f=0.0000  <S**2>=2.000
      89 -> 99        -0.10273
      93 -> 97        -0.14095
      94 -> 97         0.18152
      95 -> 97         0.73003
      95 <- 97         0.32099
 This state for optimization and/or second-order correction.
 Total Energy, E(TD-HF/TD-DFT) =  -1226.27395515    
 Copying the excited state density for this state as the 1-particle RhoCI density.
 
 Excited State   2:      Triplet-A      1.4366 eV  863.06 nm  f=0.0000  <S**2>=2.000
      96 -> 97         0.70601
 
 Excited State   3:      Singlet-A      1.4415 eV  860.11 nm  f=0.0008  <S**2>=0.000
      96 -> 97         0.70672
 
 Excited State   4:      Triplet-A      2.8873 eV  429.42 nm  f=0.0000  <S**2>=2.000
      92 ->104         0.13268
      94 -> 97        -0.12910
      96 -> 99         0.12191
      96 ->100        -0.14432
      96 ->101         0.46438
      96 ->103         0.43766
 
 Excited State   5:      Singlet-A      2.9223 eV  424.27 nm  f=0.0005  <S**2>=0.000
      94 -> 97         0.65904
      95 -> 97        -0.24723
 
 Excited State   6:      Singlet-A      3.0877 eV  401.55 nm  f=0.0243  <S**2>=0.000
      93 -> 97         0.49520
      94 -> 97         0.21389
      95 -> 97         0.44686
 SavETr:  write IOETrn=   770 NScale= 10 NData=  16 NLR=1 NState=    6 LETran=     118.

 **********************************************************************

            Population analysis using the SCF Density.

 **********************************************************************

 Orbital symmetries:
       Occupied  (A) (A) (A) (A) (A) (A) (A) (A) (A) (A) (A) (A)
                 (A) (A) (A) (A) (A) (A) (A) (A) (A) (A) (A) (A)
                 (A) (A) (A) (A) (A) (A) (A) (A) (A) (A) (A) (A)
                 (A) (A) (A) (A) (A) (A) (A) (A) (A) (A) (A) (A)
                 (A) (A) (A) (A) (A) (A) (A) (A) (A) (A) (A) (A)
                 (A) (A) (A) (A) (A) (A) (A) (A) (A) (A) (A) (A)
                 (A) (A) (A) (A) (A) (A) (A) (A) (A) (A) (A) (A)
                 (A) (A) (A) (A) (A) (A) (A) (A) (A) (A) (A) (A)
       Virtual   (A) (A) (A) (A) (A) (A) (A) (A) (A) (A) (A) (A)
                 (A) (A) (A) (A) (A) (A) (A) (A) (A) (A) (A) (A)
                 (A) (A) (A) (A) (A) (A) (A) (A) (A) (A) (A) (A)
                 (A) (A) (A) (A) (A) (A) (A) (A) (A) (A) (A) (A)
                 (A) (A) (A) (A) (A) (A) (A) (A) (A) (A) (A) (A)
                 (A) (A) (A) (A) (A) (A) (A) (A) (A) (A) (A) (A)
                 (A) (A) (A) (A) (A) (A) (A) (A) (A) (A) (A) (A)
                 (A) (A) (A) (A) (A) (A) (A) (A) (A) (A) (A) (A)
                 (A) (A) (A) (A) (A) (A) (A) (A) (A) (A) (A) (A)
                 (A) (A) (A) (A) (A) (A) (A) (A) (A) (A) (A) (A)
                 (A) (A) (A) (A) (A) (A) (A) (A) (A) (A) (A) (A)
                 (A) (A) (A) (A) (A) (A) (A) (A) (A) (A) (A) (A)
                 (A) (A) (A) (A) (A) (A) (A) (A) (A) (A) (A) (A)
                 (A) (A) (A) (A) (A) (A) (A) (A) (A) (A) (A) (A)
                 (A) (A) (A) (A) (A) (A) (A) (A) (A) (A) (A) (A)
                 (A) (A) (A) (A) (A) (A) (A)
 The electronic state is 1-A.
 Alpha  occ. eigenvalues --  -24.72193 -19.26767 -19.19736 -14.53633 -14.41798
 Alpha  occ. eigenvalues --  -14.36725 -10.30804 -10.27695 -10.26981 -10.24146
 Alpha  occ. eigenvalues --  -10.23223 -10.23106 -10.22805 -10.22049 -10.21873
 Alpha  occ. eigenvalues --  -10.20348 -10.20075 -10.19578 -10.19417 -10.19397
 Alpha  occ. eigenvalues --  -10.18792 -10.18692 -10.17872 -10.17812 -10.17804
 Alpha  occ. eigenvalues --  -10.17483 -10.17452  -1.23184  -1.20242  -1.12104
 Alpha  occ. eigenvalues --   -0.96610  -0.93449  -0.89099  -0.87196  -0.85663
 Alpha  occ. eigenvalues --   -0.81513  -0.80362  -0.78483  -0.77775  -0.76085
 Alpha  occ. eigenvalues --   -0.72782  -0.72129  -0.69277  -0.68619  -0.67903
 Alpha  occ. eigenvalues --   -0.65561  -0.64009  -0.63229  -0.62065  -0.58339
 Alpha  occ. eigenvalues --   -0.57058  -0.56683  -0.54977  -0.52911  -0.52823
 Alpha  occ. eigenvalues --   -0.52534  -0.50497  -0.49897  -0.48989  -0.48467
 Alpha  occ. eigenvalues --   -0.48025  -0.47631  -0.46455  -0.46225  -0.45491
 Alpha  occ. eigenvalues --   -0.44227  -0.43690  -0.43402  -0.42479  -0.42278
 Alpha  occ. eigenvalues --   -0.42197  -0.41572  -0.41360  -0.41189  -0.40916
 Alpha  occ. eigenvalues --   -0.40389  -0.40293  -0.39532  -0.38951  -0.38302
 Alpha  occ. eigenvalues --   -0.36966  -0.36719  -0.36647  -0.35718  -0.34644
 Alpha  occ. eigenvalues --   -0.34088  -0.33410  -0.32402  -0.30631  -0.29362
 Alpha  occ. eigenvalues --   -0.29049  -0.26410  -0.24027  -0.23246  -0.22936
 Alpha  occ. eigenvalues --   -0.17888
 Alpha virt. eigenvalues --   -0.10673  -0.02453  -0.01502  -0.01156  -0.00455
 Alpha virt. eigenvalues --    0.00483   0.01369   0.05372   0.06469   0.08057
 Alpha virt. eigenvalues --    0.08596   0.10331   0.10788   0.11369   0.11648
 Alpha virt. eigenvalues --    0.12426   0.12807   0.13041   0.13324   0.13765
 Alpha virt. eigenvalues --    0.14574   0.15277   0.15408   0.16142   0.16214
 Alpha virt. eigenvalues --    0.16993   0.17206   0.17865   0.18031   0.19176
 Alpha virt. eigenvalues --    0.19644   0.20106   0.20859   0.21487   0.21778
 Alpha virt. eigenvalues --    0.23639   0.24588   0.24819   0.25393   0.25508
 Alpha virt. eigenvalues --    0.26708   0.27031   0.28246   0.31021   0.32248
 Alpha virt. eigenvalues --    0.33606   0.34326   0.35645   0.36493   0.37094
 Alpha virt. eigenvalues --    0.37666   0.38248   0.38820   0.41199   0.42814
 Alpha virt. eigenvalues --    0.44988   0.47057   0.48557   0.49147   0.49600
 Alpha virt. eigenvalues --    0.51272   0.51857   0.52781   0.53212   0.53380
 Alpha virt. eigenvalues --    0.54434   0.55043   0.55603   0.56351   0.56492
 Alpha virt. eigenvalues --    0.57031   0.57803   0.58381   0.58765   0.59128
 Alpha virt. eigenvalues --    0.59689   0.60521   0.61047   0.61502   0.62334
 Alpha virt. eigenvalues --    0.62945   0.63137   0.63361   0.63675   0.64465
 Alpha virt. eigenvalues --    0.64775   0.65380   0.66194   0.67451   0.68880
 Alpha virt. eigenvalues --    0.69410   0.69987   0.70351   0.70713   0.71851
 Alpha virt. eigenvalues --    0.72916   0.73157   0.74054   0.74719   0.75832
 Alpha virt. eigenvalues --    0.76381   0.77332   0.78794   0.79384   0.80014
 Alpha virt. eigenvalues --    0.80571   0.80837   0.81031   0.81485   0.83289
 Alpha virt. eigenvalues --    0.84433   0.84879   0.85264   0.85746   0.86101
 Alpha virt. eigenvalues --    0.87213   0.87614   0.87971   0.88198   0.89990
 Alpha virt. eigenvalues --    0.90935   0.91697   0.92312   0.93212   0.93750
 Alpha virt. eigenvalues --    0.94269   0.94610   0.94755   0.94991   0.96206
 Alpha virt. eigenvalues --    0.96590   0.97032   0.97473   0.97531   0.98466
 Alpha virt. eigenvalues --    0.99424   1.00427   1.01037   1.01970   1.02672
 Alpha virt. eigenvalues --    1.03626   1.04908   1.05987   1.07508   1.08594
 Alpha virt. eigenvalues --    1.09215   1.10557   1.12103   1.12752   1.14482
 Alpha virt. eigenvalues --    1.15971   1.16682   1.18857   1.19308   1.22068
 Alpha virt. eigenvalues --    1.23510   1.24631   1.25225   1.27083   1.27632
 Alpha virt. eigenvalues --    1.29851   1.31067   1.33186   1.35328   1.35691
 Alpha virt. eigenvalues --    1.38916   1.41171   1.43304   1.45115   1.46607
 Alpha virt. eigenvalues --    1.48252   1.50474   1.51277   1.54910   1.56327
 Alpha virt. eigenvalues --    1.59479   1.63052   1.66298   1.70365   1.71500
 Alpha virt. eigenvalues --    1.73665   1.79473   1.87559   1.92749   1.94856
 Alpha virt. eigenvalues --    1.98269   2.35324
          Condensed to atoms (all electrons):
               1          2          3          4          5          6
     1  C    5.164425   0.305214  -0.049274   0.005153  -0.000213   0.001033
     2  C    0.305214   4.803963   0.511209  -0.038599   0.006000  -0.027558
     3  C   -0.049274   0.511209   5.076039   0.497595  -0.047287  -0.045170
     4  C    0.005153  -0.038599   0.497595   4.897900   0.314472   0.492903
     5  C   -0.000213   0.006000  -0.047287   0.314472   5.180348  -0.051336
     6  C    0.001033  -0.027558  -0.045170   0.492903  -0.051336   5.012935
     7  C    0.000004   0.000064   0.008190  -0.063175  -0.013267   0.342302
     8  C   -0.000000   0.000032  -0.000036  -0.002214  -0.001347  -0.020633
     9  N    0.000000  -0.000000   0.000001   0.000026  -0.000063   0.003450
    10  C   -0.000000   0.000000  -0.000000  -0.000000   0.000001  -0.000072
    11  C    0.000000   0.000000   0.000000  -0.000027   0.000016   0.000806
    12  C    0.000000  -0.000000   0.000000   0.000120   0.000039   0.005312
    13  C   -0.000000   0.000015  -0.000022  -0.002158  -0.001381  -0.039557
    14  C    0.006167  -0.043158  -0.048849  -0.039161   0.006501   0.504836
    15  C   -0.000222   0.005567   0.000791   0.005619  -0.000170  -0.037691
    16  C    0.000001   0.000068  -0.000009   0.000110   0.000001  -0.003106
    17  C    0.000000   0.000020  -0.000003  -0.000005   0.000001   0.001047
    18  C    0.000000  -0.000000  -0.000000  -0.000000   0.000000  -0.000069
    19  C    0.000000  -0.000000   0.000000   0.000000  -0.000000   0.000003
    20  C    0.000000  -0.000002   0.000000  -0.000001   0.000000  -0.000010
    21  C    0.000003  -0.000071  -0.000000  -0.000002   0.000000  -0.000673
    22  F   -0.000005   0.000160   0.000001  -0.000000  -0.000000  -0.000035
    23  N   -0.000000   0.000000  -0.000000   0.000000  -0.000000   0.000000
    24  O    0.000000  -0.000000   0.000000   0.000000   0.000000  -0.000000
    25  N   -0.000000   0.000000  -0.000000   0.000000  -0.000000   0.000000
    26  O    0.000000  -0.000000   0.000000   0.000000   0.000000  -0.000000
    27  C   -0.037396   0.520188  -0.052587  -0.045495   0.000756  -0.054592
    28  H    0.366856  -0.033519  -0.002369   0.000204  -0.000001   0.000007
    29  H    0.366157  -0.032327  -0.002850  -0.000049   0.000004   0.000012
    30  H    0.367412  -0.035224   0.003120  -0.000185   0.000002  -0.000010
    31  H   -0.005250  -0.043777   0.346760  -0.033274  -0.007275   0.004495
    32  H   -0.000004   0.000424  -0.002295  -0.035239   0.361445   0.003864
    33  H    0.000004  -0.000216  -0.001631  -0.030099   0.363388  -0.003585
    34  H    0.000002  -0.000181   0.002086  -0.032690   0.364716  -0.005251
    35  H   -0.000000  -0.000011  -0.000022   0.000690   0.000078  -0.002225
    36  H    0.000000   0.000000   0.000000  -0.000003  -0.000001   0.000001
    37  H    0.000000   0.000000   0.000000  -0.000000  -0.000000   0.000002
    38  H    0.000000  -0.000000  -0.000000   0.000000   0.000000   0.000001
    39  H   -0.000000  -0.000000   0.000000   0.000000  -0.000000  -0.000009
    40  H   -0.000000  -0.000000  -0.000000   0.000002  -0.000001  -0.000180
    41  H    0.000000  -0.000012   0.000034  -0.000532   0.000143  -0.000212
    42  H    0.000000  -0.000005  -0.000082   0.001575   0.000491  -0.003093
    43  H   -0.000002   0.000474  -0.000012  -0.000143   0.000002   0.003352
    44  H    0.000002  -0.000198  -0.000014   0.000391   0.000002  -0.009195
    45  H   -0.000000  -0.000000   0.000000   0.000010  -0.000001  -0.000406
    46  H   -0.000000   0.000000  -0.000000  -0.000000  -0.000000   0.000000
    47  H   -0.007041  -0.033359   0.005098   0.000717   0.000009   0.003564
               7          8          9         10         11         12
     1  C    0.000004  -0.000000   0.000000  -0.000000   0.000000   0.000000
     2  C    0.000064   0.000032  -0.000000   0.000000   0.000000  -0.000000
     3  C    0.008190  -0.000036   0.000001  -0.000000   0.000000   0.000000
     4  C   -0.063175  -0.002214   0.000026  -0.000000  -0.000027   0.000120
     5  C   -0.013267  -0.001347  -0.000063   0.000001   0.000016   0.000039
     6  C    0.342302  -0.020633   0.003450  -0.000072   0.000806   0.005312
     7  C    5.055974   0.609566  -0.040256   0.003761  -0.007591  -0.012865
     8  C    0.609566   4.852787   0.228372  -0.032947  -0.057644  -0.014929
     9  N   -0.040256   0.228372   7.216229   0.255574   0.264542  -0.055927
    10  C    0.003761  -0.032947   0.255574   4.924108  -0.033330   0.003744
    11  C   -0.007591  -0.057644   0.264542  -0.033330   4.755058   0.652019
    12  C   -0.012865  -0.014929  -0.055927   0.003744   0.652019   5.019739
    13  C    0.328368  -0.058938  -0.027158   0.000101  -0.050158   0.316453
    14  C   -0.067261  -0.004905   0.000203  -0.000002   0.000054   0.000065
    15  C   -0.016807  -0.003754  -0.000023   0.000001   0.000002  -0.000104
    16  C   -0.001868  -0.000278   0.000022   0.000000   0.000036   0.000073
    17  C   -0.000828   0.000350   0.000152   0.000002  -0.001404  -0.006990
    18  C    0.000203   0.000025  -0.000002  -0.000000  -0.000007   0.000066
    19  C    0.000003   0.000000  -0.000000  -0.000000   0.000000   0.000002
    20  C   -0.000001  -0.000000   0.000000   0.000000  -0.000000  -0.000001
    21  C   -0.000060  -0.000012   0.000000   0.000000   0.000001   0.000003
    22  F    0.000000  -0.000000   0.000000   0.000000   0.000000   0.000000
    23  N    0.000000  -0.000000  -0.000000  -0.000000   0.000000   0.000000
    24  O    0.000000  -0.000000   0.000000   0.000000  -0.000000  -0.000000
    25  N    0.000001  -0.000000   0.000000   0.000000  -0.000002   0.000046
    26  O    0.000000   0.000000   0.000000   0.000000  -0.000004  -0.000287
    27  C    0.008764   0.000047  -0.000000  -0.000000   0.000000   0.000002
    28  H   -0.000000   0.000000  -0.000000   0.000000  -0.000000   0.000000
    29  H   -0.000000  -0.000000   0.000000  -0.000000   0.000000  -0.000000
    30  H   -0.000000   0.000000  -0.000000   0.000000  -0.000000   0.000000
    31  H   -0.000216  -0.000002  -0.000000   0.000000  -0.000000  -0.000000
    32  H    0.000367   0.000053  -0.000000   0.000000  -0.000000  -0.000001
    33  H   -0.000127  -0.000124   0.000016  -0.000000  -0.000003  -0.000121
    34  H    0.008106   0.003938  -0.000199  -0.000006   0.000044   0.000008
    35  H   -0.040064   0.371251  -0.056777  -0.002424   0.003686  -0.000262
    36  H    0.000506  -0.001173  -0.041796   0.380132   0.002572  -0.000231
    37  H   -0.000205   0.002366  -0.041301   0.380807  -0.001137   0.000439
    38  H    0.000052   0.001469  -0.058473   0.368946   0.001159   0.000193
    39  H   -0.000329   0.004369  -0.059384  -0.002448   0.371026  -0.030107
    40  H    0.003057   0.000894   0.004238  -0.000139  -0.030240   0.360904
    41  H   -0.044641   0.002515   0.000709   0.000010   0.002577  -0.037407
    42  H   -0.049191  -0.002407   0.002075  -0.000005  -0.002910  -0.047483
    43  H    0.000549   0.000165  -0.000005   0.000000  -0.000000   0.000002
    44  H    0.010626   0.007752  -0.000769  -0.000010   0.000080   0.000157
    45  H    0.004720   0.001092  -0.001230  -0.000027   0.005088   0.016502
    46  H   -0.000000  -0.000000   0.000000   0.000000  -0.000000  -0.000000
    47  H   -0.000192  -0.000004  -0.000000   0.000000  -0.000000  -0.000000
              13         14         15         16         17         18
     1  C   -0.000000   0.006167  -0.000222   0.000001   0.000000   0.000000
     2  C    0.000015  -0.043158   0.005567   0.000068   0.000020  -0.000000
     3  C   -0.000022  -0.048849   0.000791  -0.000009  -0.000003  -0.000000
     4  C   -0.002158  -0.039161   0.005619   0.000110  -0.000005  -0.000000
     5  C   -0.001381   0.006501  -0.000170   0.000001   0.000001   0.000000
     6  C   -0.039557   0.504836  -0.037691  -0.003106   0.001047  -0.000069
     7  C    0.328368  -0.067261  -0.016807  -0.001868  -0.000828   0.000203
     8  C   -0.058938  -0.004905  -0.003754  -0.000278   0.000350   0.000025
     9  N   -0.027158   0.000203  -0.000023   0.000022   0.000152  -0.000002
    10  C    0.000101  -0.000002   0.000001   0.000000   0.000002  -0.000000
    11  C   -0.050158   0.000054   0.000002   0.000036  -0.001404  -0.000007
    12  C    0.316453   0.000065  -0.000104   0.000073  -0.006990   0.000066
    13  C    5.148042  -0.001006   0.000730  -0.000720  -0.000582  -0.000244
    14  C   -0.001006   4.987191   0.296894  -0.052226  -0.006255   0.000014
    15  C    0.000730   0.296894   5.264195   0.300168  -0.036253   0.005614
    16  C   -0.000720  -0.052226   0.300168   5.244773   0.434351   0.016111
    17  C   -0.000582  -0.006255  -0.036253   0.434351   5.187208   0.282798
    18  C   -0.000244   0.000014   0.005614   0.016111   0.282798   5.594459
    19  C    0.000001  -0.000016   0.000265  -0.018304  -0.008564   0.208428
    20  C    0.000001  -0.000000   0.006174  -0.105658  -0.044187  -0.056772
    21  C    0.000003  -0.004628  -0.050451   0.283905  -0.029901  -0.034076
    22  F    0.000000  -0.003985   0.001184  -0.073148   0.003827  -0.000306
    23  N    0.000000  -0.000000  -0.000001  -0.000499   0.011103  -0.014672
    24  O   -0.000000  -0.000000   0.000000  -0.000041   0.004558  -0.152548
    25  N   -0.000033   0.000001  -0.000116   0.009043  -0.061426  -0.152052
    26  O   -0.000063  -0.000000  -0.000001   0.000425   0.006716  -0.094399
    27  C   -0.000110   0.462758  -0.043471  -0.008521  -0.000236   0.000033
    28  H   -0.000000  -0.000199   0.000002   0.000000  -0.000000  -0.000000
    29  H    0.000000  -0.000182   0.000004   0.000000   0.000000   0.000000
    30  H   -0.000000   0.000385  -0.000002  -0.000001  -0.000000   0.000000
    31  H    0.000001   0.000748   0.000011  -0.000000  -0.000000   0.000000
    32  H    0.000104  -0.000180   0.000002   0.000000  -0.000000  -0.000000
    33  H   -0.000284  -0.000153   0.000001  -0.000001  -0.000000   0.000000
    34  H   -0.000528   0.000267   0.000005   0.000001   0.000000  -0.000000
    35  H    0.005314   0.000876   0.000077   0.000035  -0.000001   0.000000
    36  H   -0.000003   0.000002   0.000002   0.000000   0.000000  -0.000000
    37  H   -0.000003   0.000000   0.000000  -0.000000   0.000000   0.000000
    38  H    0.000011  -0.000002  -0.000014  -0.000000  -0.000007   0.000000
    39  H    0.005176  -0.000000   0.000000  -0.000000  -0.000005   0.000000
    40  H   -0.036140  -0.000003  -0.000002   0.000013  -0.000041  -0.000112
    41  H    0.355235   0.002116   0.000069   0.001126   0.007980  -0.000377
    42  H    0.372390  -0.000262  -0.000029   0.000001  -0.000075   0.000009
    43  H   -0.000012  -0.036748   0.362148  -0.037320   0.003980  -0.000262
    44  H   -0.000362  -0.031038   0.352562  -0.040364  -0.008086   0.000828
    45  H   -0.002405   0.000208  -0.006784  -0.024951   0.332939  -0.033274
    46  H   -0.000000   0.000003  -0.000067   0.005095  -0.000509   0.005730
    47  H    0.000001  -0.037219  -0.005238  -0.001585  -0.000071   0.000004
              19         20         21         22         23         24
     1  C    0.000000   0.000000   0.000003  -0.000005  -0.000000   0.000000
     2  C   -0.000000  -0.000002  -0.000071   0.000160   0.000000  -0.000000
     3  C    0.000000   0.000000  -0.000000   0.000001  -0.000000   0.000000
     4  C    0.000000  -0.000001  -0.000002  -0.000000   0.000000   0.000000
     5  C   -0.000000   0.000000   0.000000  -0.000000  -0.000000   0.000000
     6  C    0.000003  -0.000010  -0.000673  -0.000035   0.000000  -0.000000
     7  C    0.000003  -0.000001  -0.000060   0.000000   0.000000   0.000000
     8  C    0.000000  -0.000000  -0.000012  -0.000000  -0.000000  -0.000000
     9  N   -0.000000   0.000000   0.000000   0.000000  -0.000000   0.000000
    10  C   -0.000000   0.000000   0.000000   0.000000  -0.000000   0.000000
    11  C    0.000000  -0.000000   0.000001   0.000000   0.000000  -0.000000
    12  C    0.000002  -0.000001   0.000003   0.000000   0.000000  -0.000000
    13  C    0.000001   0.000001   0.000003   0.000000   0.000000  -0.000000
    14  C   -0.000016  -0.000000  -0.004628  -0.003985  -0.000000  -0.000000
    15  C    0.000265   0.006174  -0.050451   0.001184  -0.000001   0.000000
    16  C   -0.018304  -0.105658   0.283905  -0.073148  -0.000499  -0.000041
    17  C   -0.008564  -0.044187  -0.029901   0.003827   0.011103   0.004558
    18  C    0.208428  -0.056772  -0.034076  -0.000306  -0.014672  -0.152548
    19  C    5.228864   0.299911   0.019837   0.004126   0.228957  -0.051602
    20  C    0.299911   5.301638   0.414820  -0.063709  -0.056715   0.006247
    21  C    0.019837   0.414820   4.897719   0.268992   0.004852  -0.000079
    22  F    0.004126  -0.063709   0.268992   9.170948  -0.000006   0.000000
    23  N    0.228957  -0.056715   0.004852  -0.000006   7.016250   0.077429
    24  O   -0.051602   0.006247  -0.000079   0.000000   0.077429   8.344435
    25  N    0.013866   0.011130  -0.000391  -0.000000  -0.092580   0.019335
    26  O    0.005903   0.000001  -0.000012  -0.000000   0.002808  -0.046865
    27  C   -0.000016   0.000026   0.004004  -0.001223  -0.000000  -0.000000
    28  H    0.000000  -0.000000  -0.000000  -0.000000  -0.000000  -0.000000
    29  H   -0.000000  -0.000000  -0.000000  -0.000000   0.000000  -0.000000
    30  H    0.000000  -0.000000   0.000001  -0.000009  -0.000000   0.000000
    31  H    0.000000   0.000000  -0.000000   0.000000   0.000000  -0.000000
    32  H    0.000000  -0.000000   0.000000   0.000000   0.000000  -0.000000
    33  H    0.000000   0.000000  -0.000000  -0.000000   0.000000  -0.000000
    34  H   -0.000000  -0.000000   0.000000   0.000000  -0.000000   0.000000
    35  H    0.000000  -0.000000  -0.000000  -0.000000  -0.000000  -0.000000
    36  H   -0.000000   0.000000   0.000000  -0.000000  -0.000000   0.000000
    37  H   -0.000000   0.000000  -0.000000  -0.000000  -0.000000   0.000000
    38  H    0.000000  -0.000000  -0.000000   0.000000   0.000000  -0.000000
    39  H    0.000000   0.000000   0.000000  -0.000000  -0.000000  -0.000000
    40  H    0.000001   0.000000  -0.000000   0.000000  -0.000000   0.000001
    41  H   -0.000047  -0.000004  -0.000006  -0.000000  -0.000000   0.000001
    42  H    0.000000  -0.000000  -0.000000  -0.000000   0.000000  -0.000000
    43  H   -0.000013   0.000305  -0.008342   0.003101   0.000000  -0.000000
    44  H   -0.000034  -0.000074   0.006042   0.000209  -0.000000   0.000000
    45  H    0.003201   0.000464   0.003571  -0.000009  -0.000119   0.000059
    46  H   -0.031617   0.352025  -0.035604  -0.002921  -0.002305  -0.000082
    47  H   -0.000008   0.000176   0.000898   0.011330   0.000000  -0.000000
              25         26         27         28         29         30
     1  C   -0.000000   0.000000  -0.037396   0.366856   0.366157   0.367412
     2  C    0.000000  -0.000000   0.520188  -0.033519  -0.032327  -0.035224
     3  C   -0.000000   0.000000  -0.052587  -0.002369  -0.002850   0.003120
     4  C    0.000000   0.000000  -0.045495   0.000204  -0.000049  -0.000185
     5  C   -0.000000   0.000000   0.000756  -0.000001   0.000004   0.000002
     6  C    0.000000  -0.000000  -0.054592   0.000007   0.000012  -0.000010
     7  C    0.000001   0.000000   0.008764  -0.000000  -0.000000  -0.000000
     8  C   -0.000000   0.000000   0.000047   0.000000  -0.000000   0.000000
     9  N    0.000000   0.000000  -0.000000  -0.000000   0.000000  -0.000000
    10  C    0.000000   0.000000  -0.000000   0.000000  -0.000000   0.000000
    11  C   -0.000002  -0.000004   0.000000  -0.000000   0.000000  -0.000000
    12  C    0.000046  -0.000287   0.000002   0.000000  -0.000000   0.000000
    13  C   -0.000033  -0.000063  -0.000110  -0.000000   0.000000  -0.000000
    14  C    0.000001  -0.000000   0.462758  -0.000199  -0.000182   0.000385
    15  C   -0.000116  -0.000001  -0.043471   0.000002   0.000004  -0.000002
    16  C    0.009043   0.000425  -0.008521   0.000000   0.000000  -0.000001
    17  C   -0.061426   0.006716  -0.000236  -0.000000   0.000000  -0.000000
    18  C   -0.152052  -0.094399   0.000033  -0.000000   0.000000   0.000000
    19  C    0.013866   0.005903  -0.000016   0.000000  -0.000000   0.000000
    20  C    0.011130   0.000001   0.000026  -0.000000  -0.000000  -0.000000
    21  C   -0.000391  -0.000012   0.004004  -0.000000  -0.000000   0.000001
    22  F   -0.000000  -0.000000  -0.001223  -0.000000  -0.000000  -0.000009
    23  N   -0.092580   0.002808  -0.000000  -0.000000   0.000000  -0.000000
    24  O    0.019335  -0.046865  -0.000000  -0.000000  -0.000000   0.000000
    25  N    7.193584   0.176669   0.000000   0.000000   0.000000   0.000000
    26  O    0.176669   8.280055  -0.000000  -0.000000  -0.000000   0.000000
    27  C    0.000000  -0.000000   5.113503   0.001329  -0.001326  -0.001137
    28  H    0.000000  -0.000000   0.001329   0.577673  -0.033339  -0.028971
    29  H    0.000000  -0.000000  -0.001326  -0.033339   0.578324  -0.030076
    30  H    0.000000   0.000000  -0.001137  -0.028971  -0.030076   0.572933
    31  H    0.000000  -0.000000   0.004797   0.002594   0.000941   0.000045
    32  H    0.000000  -0.000000  -0.000003   0.000003  -0.000002   0.000000
    33  H    0.000000  -0.000000   0.000026  -0.000001   0.000000  -0.000000
    34  H   -0.000000   0.000000  -0.000005   0.000000  -0.000000  -0.000000
    35  H    0.000000   0.000000  -0.000037  -0.000000   0.000000  -0.000000
    36  H    0.000000  -0.000000  -0.000000   0.000000  -0.000000   0.000000
    37  H   -0.000000  -0.000000  -0.000000  -0.000000   0.000000  -0.000000
    38  H   -0.000000   0.000000   0.000000  -0.000000   0.000000  -0.000000
    39  H    0.000000  -0.000001   0.000000  -0.000000   0.000000  -0.000000
    40  H   -0.000023   0.001538  -0.000000  -0.000000   0.000000   0.000000
    41  H    0.000033   0.000075  -0.000138   0.000000  -0.000000   0.000000
    42  H   -0.000001  -0.000000   0.000027   0.000000  -0.000000   0.000000
    43  H    0.000001  -0.000000  -0.003715   0.000000  -0.000001   0.000004
    44  H    0.000004   0.000000   0.004565  -0.000000  -0.000000   0.000000
    45  H   -0.006468   0.003291   0.000025   0.000000   0.000000  -0.000000
    46  H   -0.000023   0.000000   0.000003  -0.000000   0.000000   0.000000
    47  H   -0.000000  -0.000000   0.341615   0.000100   0.000165   0.005029
              31         32         33         34         35         36
     1  C   -0.005250  -0.000004   0.000004   0.000002  -0.000000   0.000000
     2  C   -0.043777   0.000424  -0.000216  -0.000181  -0.000011   0.000000
     3  C    0.346760  -0.002295  -0.001631   0.002086  -0.000022   0.000000
     4  C   -0.033274  -0.035239  -0.030099  -0.032690   0.000690  -0.000003
     5  C   -0.007275   0.361445   0.363388   0.364716   0.000078  -0.000001
     6  C    0.004495   0.003864  -0.003585  -0.005251  -0.002225   0.000001
     7  C   -0.000216   0.000367  -0.000127   0.008106  -0.040064   0.000506
     8  C   -0.000002   0.000053  -0.000124   0.003938   0.371251  -0.001173
     9  N   -0.000000  -0.000000   0.000016  -0.000199  -0.056777  -0.041796
    10  C    0.000000   0.000000  -0.000000  -0.000006  -0.002424   0.380132
    11  C   -0.000000  -0.000000  -0.000003   0.000044   0.003686   0.002572
    12  C   -0.000000  -0.000001  -0.000121   0.000008  -0.000262  -0.000231
    13  C    0.000001   0.000104  -0.000284  -0.000528   0.005314  -0.000003
    14  C    0.000748  -0.000180  -0.000153   0.000267   0.000876   0.000002
    15  C    0.000011   0.000002   0.000001   0.000005   0.000077   0.000002
    16  C   -0.000000   0.000000  -0.000001   0.000001   0.000035   0.000000
    17  C   -0.000000  -0.000000  -0.000000   0.000000  -0.000001   0.000000
    18  C    0.000000  -0.000000   0.000000  -0.000000   0.000000  -0.000000
    19  C    0.000000   0.000000   0.000000  -0.000000   0.000000  -0.000000
    20  C    0.000000  -0.000000   0.000000  -0.000000  -0.000000   0.000000
    21  C   -0.000000   0.000000  -0.000000   0.000000  -0.000000   0.000000
    22  F    0.000000   0.000000  -0.000000   0.000000  -0.000000  -0.000000
    23  N    0.000000   0.000000   0.000000  -0.000000  -0.000000  -0.000000
    24  O   -0.000000  -0.000000  -0.000000   0.000000  -0.000000   0.000000
    25  N    0.000000   0.000000   0.000000  -0.000000   0.000000   0.000000
    26  O   -0.000000  -0.000000  -0.000000   0.000000   0.000000  -0.000000
    27  C    0.004797  -0.000003   0.000026  -0.000005  -0.000037  -0.000000
    28  H    0.002594   0.000003  -0.000001   0.000000  -0.000000   0.000000
    29  H    0.000941  -0.000002   0.000000  -0.000000   0.000000  -0.000000
    30  H    0.000045   0.000000  -0.000000  -0.000000  -0.000000   0.000000
    31  H    0.606858   0.005694   0.000369   0.000079   0.000000  -0.000000
    32  H    0.005694   0.585176  -0.029904  -0.028579  -0.000001   0.000000
    33  H    0.000369  -0.029904   0.575835  -0.034542   0.000004  -0.000000
    34  H    0.000079  -0.028579  -0.034542   0.568097   0.000008   0.000006
    35  H    0.000000  -0.000001   0.000004   0.000008   0.573619   0.002193
    36  H   -0.000000   0.000000  -0.000000   0.000006   0.002193   0.565039
    37  H   -0.000000  -0.000000  -0.000000  -0.000000   0.000073  -0.024062
    38  H    0.000000  -0.000000   0.000000  -0.000000   0.000854  -0.041545
    39  H   -0.000000  -0.000000  -0.000000   0.000000  -0.000167   0.000059
    40  H    0.000000   0.000000   0.000002  -0.000002   0.000010   0.000002
    41  H   -0.000000  -0.000004  -0.000167   0.000122  -0.000166   0.000001
    42  H    0.000003  -0.000056   0.005675  -0.000820  -0.000079  -0.000006
    43  H   -0.000000  -0.000000  -0.000000  -0.000000  -0.000000  -0.000000
    44  H   -0.000000  -0.000000   0.000001  -0.000004   0.000340  -0.000009
    45  H    0.000000   0.000000   0.000000  -0.000000   0.000027  -0.000001
    46  H    0.000000   0.000000   0.000000  -0.000000  -0.000000   0.000000
    47  H   -0.000196  -0.000000  -0.000000  -0.000000   0.000001   0.000000
              37         38         39         40         41         42
     1  C    0.000000   0.000000  -0.000000  -0.000000   0.000000   0.000000
     2  C    0.000000  -0.000000  -0.000000  -0.000000  -0.000012  -0.000005
     3  C    0.000000  -0.000000   0.000000  -0.000000   0.000034  -0.000082
     4  C   -0.000000   0.000000   0.000000   0.000002  -0.000532   0.001575
     5  C   -0.000000   0.000000  -0.000000  -0.000001   0.000143   0.000491
     6  C    0.000002   0.000001  -0.000009  -0.000180  -0.000212  -0.003093
     7  C   -0.000205   0.000052  -0.000329   0.003057  -0.044641  -0.049191
     8  C    0.002366   0.001469   0.004369   0.000894   0.002515  -0.002407
     9  N   -0.041301  -0.058473  -0.059384   0.004238   0.000709   0.002075
    10  C    0.380807   0.368946  -0.002448  -0.000139   0.000010  -0.000005
    11  C   -0.001137   0.001159   0.371026  -0.030240   0.002577  -0.002910
    12  C    0.000439   0.000193  -0.030107   0.360904  -0.037407  -0.047483
    13  C   -0.000003   0.000011   0.005176  -0.036140   0.355235   0.372390
    14  C    0.000000  -0.000002  -0.000000  -0.000003   0.002116  -0.000262
    15  C    0.000000  -0.000014   0.000000  -0.000002   0.000069  -0.000029
    16  C   -0.000000  -0.000000  -0.000000   0.000013   0.001126   0.000001
    17  C    0.000000  -0.000007  -0.000005  -0.000041   0.007980  -0.000075
    18  C    0.000000   0.000000   0.000000  -0.000112  -0.000377   0.000009
    19  C   -0.000000   0.000000   0.000000   0.000001  -0.000047   0.000000
    20  C    0.000000  -0.000000   0.000000   0.000000  -0.000004  -0.000000
    21  C   -0.000000  -0.000000   0.000000  -0.000000  -0.000006  -0.000000
    22  F   -0.000000   0.000000  -0.000000   0.000000  -0.000000  -0.000000
    23  N   -0.000000   0.000000  -0.000000  -0.000000  -0.000000   0.000000
    24  O    0.000000  -0.000000  -0.000000   0.000001   0.000001  -0.000000
    25  N   -0.000000  -0.000000   0.000000  -0.000023   0.000033  -0.000001
    26  O   -0.000000   0.000000  -0.000001   0.001538   0.000075  -0.000000
    27  C   -0.000000   0.000000   0.000000  -0.000000  -0.000138   0.000027
    28  H   -0.000000  -0.000000  -0.000000  -0.000000   0.000000   0.000000
    29  H    0.000000   0.000000   0.000000   0.000000  -0.000000  -0.000000
    30  H   -0.000000  -0.000000  -0.000000   0.000000   0.000000   0.000000
    31  H   -0.000000   0.000000  -0.000000   0.000000  -0.000000   0.000003
    32  H   -0.000000  -0.000000  -0.000000   0.000000  -0.000004  -0.000056
    33  H   -0.000000   0.000000  -0.000000   0.000002  -0.000167   0.005675
    34  H   -0.000000  -0.000000   0.000000  -0.000002   0.000122  -0.000820
    35  H    0.000073   0.000854  -0.000167   0.000010  -0.000166  -0.000079
    36  H   -0.024062  -0.041545   0.000059   0.000002   0.000001  -0.000006
    37  H    0.562591  -0.041178   0.002186  -0.000001   0.000001  -0.000005
    38  H   -0.041178   0.618326   0.000795   0.000003  -0.000004   0.000005
    39  H    0.002186   0.000795   0.573071  -0.004851  -0.000153  -0.000065
    40  H   -0.000001   0.000003  -0.004851   0.569241  -0.002928   0.000797
    41  H    0.000001  -0.000004  -0.000153  -0.002928   0.638924  -0.054195
    42  H   -0.000005   0.000005  -0.000065   0.000797  -0.054195   0.631630
    43  H   -0.000000   0.000001   0.000000   0.000000  -0.000003   0.000001
    44  H   -0.000001   0.000089   0.000001   0.000001  -0.000311   0.000045
    45  H   -0.000002   0.000049   0.000064   0.000159  -0.005797   0.000513
    46  H    0.000000  -0.000000   0.000000   0.000000   0.000000  -0.000000
    47  H   -0.000000  -0.000000  -0.000000   0.000000   0.000002  -0.000000
              43         44         45         46         47
     1  C   -0.000002   0.000002  -0.000000  -0.000000  -0.007041
     2  C    0.000474  -0.000198  -0.000000   0.000000  -0.033359
     3  C   -0.000012  -0.000014   0.000000  -0.000000   0.005098
     4  C   -0.000143   0.000391   0.000010  -0.000000   0.000717
     5  C    0.000002   0.000002  -0.000001  -0.000000   0.000009
     6  C    0.003352  -0.009195  -0.000406   0.000000   0.003564
     7  C    0.000549   0.010626   0.004720  -0.000000  -0.000192
     8  C    0.000165   0.007752   0.001092  -0.000000  -0.000004
     9  N   -0.000005  -0.000769  -0.001230   0.000000  -0.000000
    10  C    0.000000  -0.000010  -0.000027   0.000000   0.000000
    11  C   -0.000000   0.000080   0.005088  -0.000000  -0.000000
    12  C    0.000002   0.000157   0.016502  -0.000000  -0.000000
    13  C   -0.000012  -0.000362  -0.002405  -0.000000   0.000001
    14  C   -0.036748  -0.031038   0.000208   0.000003  -0.037219
    15  C    0.362148   0.352562  -0.006784  -0.000067  -0.005238
    16  C   -0.037320  -0.040364  -0.024951   0.005095  -0.001585
    17  C    0.003980  -0.008086   0.332939  -0.000509  -0.000071
    18  C   -0.000262   0.000828  -0.033274   0.005730   0.000004
    19  C   -0.000013  -0.000034   0.003201  -0.031617  -0.000008
    20  C    0.000305  -0.000074   0.000464   0.352025   0.000176
    21  C   -0.008342   0.006042   0.003571  -0.035604   0.000898
    22  F    0.003101   0.000209  -0.000009  -0.002921   0.011330
    23  N    0.000000  -0.000000  -0.000119  -0.002305   0.000000
    24  O   -0.000000   0.000000   0.000059  -0.000082  -0.000000
    25  N    0.000001   0.000004  -0.006468  -0.000023  -0.000000
    26  O   -0.000000   0.000000   0.003291   0.000000  -0.000000
    27  C   -0.003715   0.004565   0.000025   0.000003   0.341615
    28  H    0.000000  -0.000000   0.000000  -0.000000   0.000100
    29  H   -0.000001  -0.000000   0.000000   0.000000   0.000165
    30  H    0.000004   0.000000  -0.000000   0.000000   0.005029
    31  H   -0.000000  -0.000000   0.000000   0.000000  -0.000196
    32  H   -0.000000  -0.000000   0.000000   0.000000  -0.000000
    33  H   -0.000000   0.000001   0.000000   0.000000  -0.000000
    34  H   -0.000000  -0.000004  -0.000000  -0.000000  -0.000000
    35  H   -0.000000   0.000340   0.000027  -0.000000   0.000001
    36  H   -0.000000  -0.000009  -0.000001   0.000000   0.000000
    37  H   -0.000000  -0.000001  -0.000002   0.000000  -0.000000
    38  H    0.000001   0.000089   0.000049  -0.000000  -0.000000
    39  H    0.000000   0.000001   0.000064   0.000000  -0.000000
    40  H    0.000000   0.000001   0.000159   0.000000   0.000000
    41  H   -0.000003  -0.000311  -0.005797   0.000000   0.000002
    42  H    0.000001   0.000045   0.000513  -0.000000  -0.000000
    43  H    0.579745  -0.032692   0.000130   0.000002   0.002663
    44  H   -0.032692   0.576612   0.003397   0.000002   0.000141
    45  H    0.000130   0.003397   0.506298   0.000009  -0.000002
    46  H    0.000002   0.000002   0.000009   0.525637   0.000005
    47  H    0.002663   0.000141  -0.000002   0.000005   0.578632
 Mulliken charges:
               1
     1  C   -0.483027
     2  C    0.134819
     3  C   -0.198411
     4  C    0.105564
     5  C   -0.476070
     6  C   -0.075259
     7  C   -0.026240
     8  C    0.114306
     9  N   -0.592246
    10  C   -0.245777
    11  C    0.125691
    12  C   -0.169174
    13  C   -0.310077
    14  C    0.108149
    15  C   -0.400888
    16  C    0.073241
    17  C   -0.071605
    18  C    0.424850
    19  C    0.096854
    20  C   -0.065783
    21  C    0.259655
    22  F   -0.318523
    23  N   -0.174500
    24  O   -0.200848
    25  N   -0.110599
    26  O   -0.335850
    27  C   -0.212459
    28  H    0.149629
    29  H    0.154545
    30  H    0.146684
    31  H    0.116594
    32  H    0.139138
    33  H    0.155637
    34  H    0.155322
    35  H    0.143096
    36  H    0.158314
    37  H    0.159431
    38  H    0.149270
    39  H    0.140772
    40  H    0.133802
    41  H    0.135433
    42  H    0.145534
    43  H    0.162651
    44  H    0.159312
    45  H    0.199661
    46  H    0.184618
    47  H    0.134765
 Sum of Mulliken charges =  -0.00000
 Mulliken charges with hydrogens summed into heavy atoms:
               1
     1  C   -0.032169
     2  C    0.134819
     3  C   -0.081817
     4  C    0.105564
     5  C   -0.025973
     6  C   -0.075259
     7  C   -0.026240
     8  C    0.257402
     9  N   -0.592246
    10  C    0.221238
    11  C    0.266464
    12  C   -0.035372
    13  C   -0.029110
    14  C    0.108149
    15  C   -0.078925
    16  C    0.073241
    17  C    0.128056
    18  C    0.424850
    19  C    0.096854
    20  C    0.118835
    21  C    0.259655
    22  F   -0.318523
    23  N   -0.174500
    24  O   -0.200848
    25  N   -0.110599
    26  O   -0.335850
    27  C   -0.077694
 Electronic spatial extent (au):  <R**2>=          10198.9011
 Charge=             -0.0000 electrons
 Dipole moment (field-independent basis, Debye):
    X=              5.0763    Y=              0.4772    Z=              2.8016  Tot=              5.8177
 Quadrupole moment (field-independent basis, Debye-Ang):
   XX=           -177.2764   YY=           -146.2243   ZZ=           -153.0357
   XY=              6.9792   XZ=             -6.8546   YZ=              8.7743
 Traceless Quadrupole moment (field-independent basis, Debye-Ang):
   XX=            -18.4310   YY=             12.6211   ZZ=              5.8098
   XY=              6.9792   XZ=             -6.8546   YZ=              8.7743
 Octapole moment (field-independent basis, Debye-Ang**2):
  XXX=            142.4591  YYY=             26.4401  ZZZ=             10.0342  XYY=             29.5642
  XXY=            -25.5050  XXZ=             39.9555  XZZ=             10.0354  YZZ=             14.4945
  YYZ=             33.2375  XYZ=             16.8079
 Hexadecapole moment (field-independent basis, Debye-Ang**3):
 XXXX=          -7997.4467 YYYY=          -4764.5000 ZZZZ=          -1181.7526 XXXY=            -12.1496
 XXXZ=           -232.8065 YYYX=             73.7926 YYYZ=            144.5090 ZZZX=             36.8150
 ZZZY=             -4.3569 XXYY=          -2034.0675 XXZZ=          -1396.9053 YYZZ=          -1029.9813
 XXYZ=             48.7602 YYXZ=             41.7312 ZZXY=             18.8137
 N-N= 2.429373126709D+03 E-N=-7.715772016729D+03  KE= 1.219637586882D+03
 Unable to Open any file for archive entry.
 1\1\GINC-N2\SP\RB3LYP TD-FC\6-31G\C21H20F1N3O2\HPCMGAC13\13-Jun-2025\0
 \\# td=(50-50,nstates=3) b3lyp/6-31g\\[No Title]\\0,1\C,0,3.367109,4.2
 86451,0.354127\C,0,2.918663,2.842094,0.308715\C,0,3.54205,1.869585,1.1
 03118\C,0,3.157977,0.523252,1.06499\C,0,3.881921,-0.475293,1.94466\C,0
 ,2.107441,0.11421,0.200107\C,0,1.671837,-1.318912,0.189435\C,0,2.06742
 6,-2.166372,-0.788568\N,0,1.636777,-3.496556,-0.883132\C,0,2.020587,-4
 .312946,-2.033037\C,0,0.573063,-3.890426,-0.058034\C,0,0.121095,-3.125
 319,0.954228\C,0,0.790456,-1.819753,1.337344\C,0,1.473954,1.090599,-0.
 610198\C,0,0.341884,0.728961,-1.580028\C,0,-1.053087,0.846613,-0.98721
 8\C,0,-1.726667,-0.243681,-0.481957\C,0,-3.012672,-0.039368,0.081245\C
 ,0,-3.640259,1.248322,0.128796\C,0,-2.952384,2.371352,-0.416693\C,0,-1
 .716312,2.129494,-0.940045\F,0,-1.029266,3.201504,-1.504981\N,0,-4.849
 752,1.217892,0.702009\O,0,-5.074991,-0.124612,1.068207\N,0,-3.831362,-
 0.943779,0.64247\O,0,-3.790604,-2.171828,0.868523\C,0,1.887327,2.43142
 2,-0.542224\H,0,3.492398,4.634928,1.386073\H,0,4.332945,4.421399,-0.15
 1252\H,0,2.643378,4.943804,-0.137944\H,0,4.352516,2.164155,1.765787\H,
 0,4.829087,-0.061499,2.304514\H,0,3.286906,-0.744207,2.827374\H,0,4.09
 438,-1.40495,1.407127\H,0,2.734024,-1.842156,-1.581259\H,0,3.0582,-4.1
 00769,-2.305038\H,0,1.953043,-5.371986,-1.76978\H,0,1.385584,-4.13259,
 -2.914164\H,0,0.124067,-4.845266,-0.307654\H,0,-0.729177,-3.464654,1.5
 36156\H,0,0.038961,-1.056759,1.590619\H,0,1.387527,-1.943044,2.260038\
 H,0,0.410656,1.385167,-2.453584\H,0,0.474371,-0.297163,-1.926866\H,0,-
 1.292209,-1.236698,-0.498098\H,0,-3.393458,3.35816,-0.420329\H,0,1.386
 88,3.167493,-1.162732\\Version=ES64L-G16RevC.02\State=1-A\HF=-1226.307
 4824\RMSD=4.838e-09\PG=C01 [X(C21H20F1N3O2)]\\@
 The archive entry for this job was punched.


 FROM THE ASHES OF OUR DESPAIR GROW THE FLOWERS OF TOMORROW.
 Job cpu time:       0 days  0 hours 54 minutes 36.9 seconds.
 Elapsed time:       0 days  0 hours  3 minutes 31.1 seconds.
 File lengths (MBytes):  RWF=    774 Int=      0 D2E=      0 Chk=     26 Scr=      2
 Normal termination of Gaussian 16 at Fri Jun 13 11:29:13 2025.
