 Entering Gaussian System, Link 0=g16
 Input=M1787.gjf
 Output=M1787.log
 Initial command:
 /hpc/softwares/Gaussian/g16/l1.exe "/hpc/home/hpcmgac13/pbs.11158.admin1.x8z/Gau-249165.inp" -scrdir="/hpc/home/hpcmgac13/pbs.11158.admin1.x8z/"
 Default linda workers: n2
 Default is to use   8 SMP processors on each worker.
 Entering Link 1 = /hpc/softwares/Gaussian/g16/l1.exe PID=    249166.
  
 Copyright (c) 1988-2021, Gaussian, Inc.  All Rights Reserved.
  
 This is part of the Gaussian(R) 16 program.  It is based on
 the Gaussian(R) 09 system (copyright 2009, Gaussian, Inc.),
 the Gaussian(R) 03 system (copyright 2003, Gaussian, Inc.),
 the Gaussian(R) 98 system (copyright 1998, Gaussian, Inc.),
 the Gaussian(R) 94 system (copyright 1995, Gaussian, Inc.),
 the Gaussian 92(TM) system (copyright 1992, Gaussian, Inc.),
 the Gaussian 90(TM) system (copyright 1990, Gaussian, Inc.),
 the Gaussian 88(TM) system (copyright 1988, Gaussian, Inc.),
 the Gaussian 86(TM) system (copyright 1986, Carnegie Mellon
 University), and the Gaussian 82(TM) system (copyright 1983,
 Carnegie Mellon University). Gaussian is a federally registered
 trademark of Gaussian, Inc.
  
 This software contains proprietary and confidential information,
 including trade secrets, belonging to Gaussian, Inc.
  
 This software is provided under written license and may be
 used, copied, transmitted, or stored only in accord with that
 written license.
  
 The following legend is applicable only to US Government
 contracts under FAR:
  
                    RESTRICTED RIGHTS LEGEND
  
 Use, reproduction and disclosure by the US Government is
 subject to restrictions as set forth in subparagraphs (a)
 and (c) of the Commercial Computer Software - Restricted
 Rights clause in FAR 52.227-19.
  
 Gaussian, Inc.
 340 Quinnipiac St., Bldg. 40, Wallingford CT 06492
  
  
 ---------------------------------------------------------------
 Warning -- This program may not be used in any manner that
 competes with the business of Gaussian, Inc. or will provide
 assistance to any competitor of Gaussian, Inc.  The licensee
 of this program is prohibited from giving any competitor of
 Gaussian, Inc. access to this program.  By using this program,
 the user acknowledges that Gaussian, Inc. is engaged in the
 business of creating and licensing software in the field of
 computational chemistry and represents and warrants to the
 licensee that it is not a competitor of Gaussian, Inc. and that
 it will not use this program in any manner prohibited above.
 ---------------------------------------------------------------
  

 Cite this work as:
 Gaussian 16, Revision C.02,
 M. J. Frisch, G. W. Trucks, H. B. Schlegel, G. E. Scuseria, 
 M. A. Robb, J. R. Cheeseman, G. Scalmani, V. Barone, 
 G. A. Petersson, H. Nakatsuji, X. Li, M. Caricato, A. V. Marenich, 
 J. Bloino, B. G. Janesko, R. Gomperts, B. Mennucci, H. P. Hratchian, 
 J. V. Ortiz, A. F. Izmaylov, J. L. Sonnenberg, D. Williams-Young, 
 F. Ding, F. Lipparini, F. Egidi, J. Goings, B. Peng, A. Petrone, 
 T. Henderson, D. Ranasinghe, V. G. Zakrzewski, J. Gao, N. Rega, 
 G. Zheng, W. Liang, M. Hada, M. Ehara, K. Toyota, R. Fukuda, 
 J. Hasegawa, M. Ishida, T. Nakajima, Y. Honda, O. Kitao, H. Nakai, 
 T. Vreven, K. Throssell, J. A. Montgomery, Jr., J. E. Peralta, 
 F. Ogliaro, M. J. Bearpark, J. J. Heyd, E. N. Brothers, K. N. Kudin, 
 V. N. Staroverov, T. A. Keith, R. Kobayashi, J. Normand, 
 K. Raghavachari, A. P. Rendell, J. C. Burant, S. S. Iyengar, 
 J. Tomasi, M. Cossi, J. M. Millam, M. Klene, C. Adamo, R. Cammi, 
 J. W. Ochterski, R. L. Martin, K. Morokuma, O. Farkas, 
 J. B. Foresman, and D. J. Fox, Gaussian, Inc., Wallingford CT, 2019.
 
 ******************************************
 Gaussian 16:  ES64L-G16RevC.02  7-Dec-2021
                13-Jun-2025 
 ******************************************
 SetLPE:    new flags="-opt 'Tsnet.Node.lindarsharg: ssh'  -nodelist 'n2.head.cm.mguif.local' -env GAUSS_MDEF=4294967296 -env GAUSS_EXEDIR="/hpc/softwares/Gaussian/g16/bsd:/hpc/softwares/Gaussian/g16""
 Will use up to    1 processors via Linda.
 ----------------------------------
 # td=(50-50,nstates=3) b3lyp/6-31g
 ----------------------------------
 1/38=1,172=1/1;
 2/12=2,17=6,18=5,40=1/2;
 3/5=1,6=6,11=9,25=1,30=1,74=-5/1,2,3,8;
 4//1;
 5/5=2,38=5/2;
 8/6=1,10=2,108=3/1;
 9/41=3,42=1,48=2,70=2/14;
 6/7=2,8=2,9=2,10=2/1;
 99/5=1,9=1/99;
 ----------
 [No Title]
 ----------
 Symbolic Z-matrix:
 Charge =  1 Multiplicity = 2
 C                     5.75115   6.3232   -1.93993 
 C                     4.77254   5.13792  -2.03156 
 C                     4.81797   4.11613  -1.07384 
 C                     3.9273    3.0375   -1.15738 
 C                     2.99135   2.98063  -2.19863 
 C                     2.01289   1.79483  -2.28953 
 C                     1.09788   1.73451  -3.28806 
 N                     0.29336   0.51279  -3.55657 
 C                    -1.02555   0.93094  -4.05325 
 C                     0.08911  -0.35264  -2.36412 
 C                     0.96311  -0.37725  -1.32788 
 C                     2.05394   0.68158  -1.25195 
 C                     3.00703   0.64654  -0.28974 
 C                     4.09003   0.60591   0.80437 
 C                     5.07273   1.59402   0.85843 
 C                     6.03816   1.52699   1.86244 
 C                     5.99753   0.47402   2.78677 
 N                     5.03959  -0.4661    2.71165 
 C                     5.02225  -1.55987   3.69352 
 C                     4.09695  -0.424     1.75438 
 C                     2.94587   4.00246  -3.1564 
 C                     3.83652   5.08102  -3.07273 
 H                     5.99926   6.50221  -0.91452 
 H                     6.64135   6.0938   -2.48755 
 H                     5.29285   7.19691  -2.35381 
 H                     5.53263   4.15934  -0.27879 
 H                     0.95747   2.59223  -3.91199 
 H                    -0.9025    1.52665  -4.93363 
 H                    -1.60977   0.06539  -4.287 
 H                    -1.52451   1.50521  -3.30085 
 H                    -0.77198  -0.98644  -2.32813 
 H                     6.80291   2.27252   1.92677 
 H                     6.7356    0.41803   3.55917 
 H                     6.0217   -1.76663   4.0148 
 H                     4.42864  -1.27332   4.53642 
 H                     4.60384  -2.43586   3.24391 
 H                     3.80192   5.86113  -3.80398 
 H                     0.88214  -1.12661  -0.56841 
 H                     3.34499  -1.18408   1.71742 
 C                     1.91754   3.9403   -4.3008 
 H                     1.01551   4.42899  -3.99667 
 H                     2.31537   4.43076  -5.16458 
 C                     3.97704   1.91473  -0.10473 
 H                     2.99945   1.49807   0.01867 
 H                     4.31427   2.31527   0.82815 
 H                     5.0856    2.38915   0.14256 
 H                     4.65203   1.15087  -0.4296 
 H                     1.70743   2.91785  -4.53597 
 
                          Input orientation:                          
 ---------------------------------------------------------------------
 Center     Atomic      Atomic             Coordinates (Angstroms)
 Number     Number       Type             X           Y           Z
 ---------------------------------------------------------------------
      1          6           0        5.751152    6.323197   -1.939927
      2          6           0        4.772535    5.137923   -2.031559
      3          6           0        4.817969    4.116134   -1.073845
      4          6           0        3.927296    3.037498   -1.157380
      5          6           0        2.991351    2.980631   -2.198634
      6          6           0        2.012888    1.794835   -2.289531
      7          6           0        1.097882    1.734509   -3.288064
      8          7           0        0.293364    0.512792   -3.556574
      9          6           0       -1.025553    0.930937   -4.053245
     10          6           0        0.089108   -0.352645   -2.364124
     11          6           0        0.963107   -0.377251   -1.327884
     12          6           0        2.053935    0.681580   -1.251948
     13          6           0        3.007034    0.646543   -0.289737
     14          6           0        4.090035    0.605912    0.804366
     15          6           0        5.072728    1.594022    0.858431
     16          6           0        6.038164    1.526990    1.862440
     17          6           0        5.997530    0.474019    2.786768
     18          7           0        5.039586   -0.466099    2.711650
     19          6           0        5.022247   -1.559870    3.693522
     20          6           0        4.096945   -0.424000    1.754378
     21          6           0        2.945868    4.002462   -3.156405
     22          6           0        3.836523    5.081023   -3.072730
     23          1           0        5.999260    6.502206   -0.914517
     24          1           0        6.641354    6.093797   -2.487550
     25          1           0        5.292848    7.196907   -2.353813
     26          1           0        5.532628    4.159336   -0.278790
     27          1           0        0.957474    2.592233   -3.911991
     28          1           0       -0.902496    1.526654   -4.933632
     29          1           0       -1.609774    0.065395   -4.286995
     30          1           0       -1.524508    1.505213   -3.300847
     31          1           0       -0.771983   -0.986442   -2.328126
     32          1           0        6.802911    2.272523    1.926772
     33          1           0        6.735599    0.418026    3.559167
     34          1           0        6.021695   -1.766631    4.014801
     35          1           0        4.428636   -1.273319    4.536423
     36          1           0        4.603844   -2.435859    3.243909
     37          1           0        3.801916    5.861134   -3.803985
     38          1           0        0.882136   -1.126614   -0.568412
     39          1           0        3.344987   -1.184076    1.717417
     40          6           0        1.917539    3.940296   -4.300799
     41          1           0        1.015514    4.428990   -3.996671
     42          1           0        2.315370    4.430755   -5.164581
     43          6           0        3.977038    1.914733   -0.104726
     44          1           0        2.999446    1.498071    0.018666
     45          1           0        4.314269    2.315270    0.828146
     46          1           0        5.085603    2.389155    0.142557
     47          1           0        4.652030    1.150867   -0.429600
     48          1           0        1.707434    2.917850   -4.535971
 ---------------------------------------------------------------------
                    Distance matrix (angstroms):
                    1          2          3          4          5
     1  C    0.000000
     2  C    1.539793   0.000000
     3  C    2.547951   1.401190   0.000000
     4  C    3.838573   2.427015   1.401332   0.000000
     5  C    4.342370   2.802577   2.427149   1.401228   0.000000
     6  C    5.882423   4.342630   3.838594   2.547732   1.540053
     7  C    6.672814   5.163827   4.941048   3.774014   2.514936
     8  N    8.133990   6.616682   6.294447   5.033462   3.900431
     9  C    8.914388   7.443371   7.291712   6.111821   4.876099
    10  C    8.763877   7.224363   6.633018   5.261273   4.422797
    11  C    8.258085   6.739736   5.925792   4.525042   4.018377
    12  C    6.780159   5.278027   4.412229   3.011440   2.657178
    13  C    6.517492   5.130636   3.991537   2.704876   3.015311
    14  C    6.555745   5.389564   4.047125   3.128505   3.983015
    15  C    5.536801   4.582728   3.187419   2.731141   3.949743
    16  C    6.127313   5.459293   4.100525   3.982048   5.280953
    17  C    7.524310   6.816810   5.436975   5.139417   6.338333
    18  N    8.260631   7.346728   5.947768   5.336832   6.339252
    19  C    9.716470   8.814723   7.415291   6.772441   7.710914
    20  C    7.868225   6.762007   5.397364   4.526488   5.332932
    21  C    3.838652   2.427192   2.802631   2.427027   1.401261
    22  C    2.547948   1.401211   2.426889   2.802285   2.426934
    23  H    1.070078   2.148000   2.667241   4.044282   4.806034
    24  H    1.070035   2.148047   3.038823   4.298421   4.806017
    25  H    1.069913   2.148020   3.369717   4.538377   4.806033
    26  H    2.736681   2.146526   1.069914   2.146516   3.396062
    27  H    6.386585   4.956940   5.027999   4.075045   2.687582
    28  H    8.731559   7.325931   7.370691   6.314240   4.975571
    29  H    9.942436   8.458806   8.249164   7.020473   5.833541
    30  H    8.831777   7.379730   7.211342   6.055123   4.876957
    31  H    9.804734   8.266648   7.671836   6.296504   5.469654
    32  H    5.697852   5.291628   4.042598   4.285597   5.661129
    33  H    8.128974   7.575439   6.230418   6.082271   7.330663
    34  H   10.048746   9.262384   7.870845   7.363262   8.386076
    35  H   10.069717   9.184807   7.789280   7.159181   8.094620
    36  H   10.242536   9.231533   7.849679   7.055970   7.846004
    37  H    2.736373   2.146306   3.395741   3.872100   3.395801
    38  H    9.004890   7.518007   6.575154   5.192275   4.896517
    39  H    8.690508   7.487348   6.168715   5.140548   5.727591
    40  C    5.093969   3.838588   4.342424   3.838652   2.548161
    41  H    5.499498   4.298774   4.806189   4.298406   3.038850
    42  H    5.077827   4.043955   4.805841   4.538406   3.369963
    43  C    5.094114   3.838548   2.548043   1.539856   2.547973
    44  H    5.889806   4.538259   3.369698   2.147982   2.667297
    45  H    5.078419   4.044168   2.667282   2.147947   3.369602
    46  H    4.500709   3.518596   2.129253   1.857918   3.196391
    47  H    5.499286   4.298535   3.038979   2.148087   3.038976
    48  H    5.889609   4.538243   4.806000   4.044377   2.667494
                    6          7          8          9         10
     6  C    0.000000
     7  C    1.355708   0.000000
     8  N    2.491143   1.487259   0.000000
     9  C    3.617891   2.395873   1.470058   0.000000
    10  C    2.884123   2.495496   1.487494   2.396494   0.000000
    11  C    2.597068   2.884441   2.491544   3.618525   1.355829
    12  C    1.522366   2.483639   2.905065   4.170455   2.483365
    13  C    2.511190   3.717324   4.249014   5.523281   3.716955
    14  C    3.911557   5.193717   5.782835   7.061959   5.192839
    15  C    4.394612   5.745656   6.595729   7.858326   6.245866
    16  C    5.789080   7.139828   7.962225   9.232914   7.535790
    17  C    6.587165   7.905629   8.530944   9.814187   7.881910
    18  N    6.267738   7.508414   7.923098   9.192466   7.091092
    19  C    7.490475   8.660030   8.900683  10.138659   7.904956
    20  C    5.061593   6.251381   6.599320   7.861574   5.747165
    21  C    2.548635   2.928481   4.401558   5.100076   5.268372
    22  C    3.839021   4.329629   5.801450   6.467180   6.638524
    23  H    6.319903   7.237967   8.683939   9.499403   9.166255
    24  H    6.320046   7.097486   8.519824   9.374859   9.192594
    25  H    6.320179   6.950422   8.433201   9.059396   9.169229
    26  H    4.692816   5.882389   7.175726   8.226714   7.371465
    27  H    2.093351   1.069902   2.211660   2.590802   3.438351
    28  H    3.944953   2.598578   2.086693   1.070094   3.334279
    29  H    4.483805   3.333947   2.087011   1.070101   2.599691
    30  H    3.690503   2.632426   2.086853   1.069977   2.633029
    31  H    3.936051   3.438233   2.211730   2.591655   1.069800
    32  H    6.399197   7.747989   8.691256   9.942098   8.389186
    33  H    7.642439   8.966691   9.599226  10.883353   8.936171
    34  H    8.276423   9.478068   9.763978  11.046899   8.825284
    35  H    7.864035   9.020174   9.262141  10.411019   8.203455
    36  H    7.431742   8.505905   8.574459   9.811926   7.494842
    37  H    4.693504   4.960545   6.401243   6.904595   7.380325
    38  H    3.574313   3.953363   3.458817   4.474021   2.110095
    39  H    5.167594   6.214697   6.325088   7.541581   5.286870
    40  C    2.942328   2.561829   3.865178   4.216553   5.052050
    41  H    3.293608   2.787317   4.006469   4.050374   5.136874
    42  H    3.912222   3.503333   4.693041   4.964429   5.973250
    43  C    2.940345   4.296005   5.239288   6.448610   5.036057
    44  H    2.527675   3.821820   4.590860   5.753496   4.192004
    45  H    3.909874   5.256007   6.216299   7.366007   5.929615
    46  H    3.963565   5.300910   6.337970   7.554958   6.226225
    47  H    3.292280   4.598198   5.402136   6.739000   5.179111
    48  H    2.530011   1.824588   2.956876   3.413219   4.246414
                   11         12         13         14         15
    11  C    0.000000
    12  C    1.522103   0.000000
    13  C    2.510686   1.354797   0.000000
    14  C    3.910342   2.894798   1.540001   0.000000
    15  C    5.055183   3.794649   2.546192   1.394622   0.000000
    16  C    6.289714   5.127202   3.820314   2.400648   1.394487
    17  C    6.557472   5.648562   4.293916   2.754243   2.414156
    18  N    5.739635   5.093269   3.791776   2.385076   2.771212
    19  C    6.564276   6.188105   4.979528   3.729189   4.241146
    20  C    4.395847   3.799236   2.551936   1.401175   2.413977
    21  C    5.143609   3.930745   4.414037   5.341664   5.142278
    22  C    6.410442   5.084089   5.300728   5.926446   5.398278
    23  H    8.535844   7.039824   6.605494   6.431639   5.300196
    24  H    8.686874   7.201612   6.907332   6.889327   5.822728
    25  H    8.784479   7.358950   7.238275   7.406894   6.462143
    26  H    6.523936   5.014292   4.326483   3.985113   2.843522
    27  H    3.936430   3.453788   4.594250   6.000203   6.378767
    28  H    4.484055   4.796815   6.133904   7.661446   8.322009
    29  H    3.946136   4.797287   6.134389   7.661719   8.571344
    30  H    3.691136   4.204951   5.508083   7.013174   7.799423
    31  H    2.093355   3.453443   4.593761   5.998943   7.139579
    32  H    7.191481   5.931958   4.686726   3.375957   2.143653
    33  H    7.605090   6.718204   5.363625   3.824034   3.382615
    34  H    7.487588   7.033883   5.782788   4.434768   4.707144
    35  H    6.870438   6.554850   5.385038   4.192184   4.707878
    36  H    6.196299   6.035992   4.953550   3.932905   4.706411
    37  H    7.287480   6.032918   6.338275   6.995518   6.446808
    38  H    1.069999   2.260509   2.781535   3.895739   5.196037
    39  H    3.949453   3.736926   2.737525   2.143085   3.382421
    40  C    5.328262   4.464675   5.303247   6.473064   6.486746
    41  H    5.497738   4.759717   5.658128   6.864296   6.933257
    42  H    6.298078   5.425252   6.209892   7.308022   7.206022
    43  C    3.979081   2.556385   1.607309   1.597570   1.493675
    44  H    3.078425   1.781883   0.905687   1.613275   2.238954
    45  H    4.809201   3.479201   2.396492   1.724166   1.047080
    46  H    5.177854   3.748528   2.746638   2.146882   1.069990
    47  H    4.092702   2.765245   1.726243   1.461331   1.425621
    48  H    4.658705   3.988204   4.987815   6.288167   6.494405
                   16         17         18         19         20
    16  C    0.000000
    17  C    1.401707   0.000000
    18  N    2.385523   1.344291   0.000000
    19  C    3.730101   2.431066   1.469935   0.000000
    20  C    2.754337   2.341899   1.344141   2.430363   0.000000
    21  C    6.393673   7.555387   7.667188   9.064899   6.710763
    22  C    6.467942   7.760681   8.104134   9.554558   7.326260
    23  H    5.697875   7.073794   7.913744   9.337325   7.662515
    24  H    6.335770   7.734007   8.522299   9.970245   8.182277
    25  H    7.104945   8.492313   9.189381  10.645404   8.739889
    26  H    3.430696   4.816154   5.529961   6.982053   5.215547
    27  H    7.764805   8.646524   8.360004   9.571111   7.145746
    28  H    9.713874  10.407833   9.885836  10.911324   8.574902
    29  H    9.921833  10.395969   9.668377  10.503040   8.324923
    30  H    9.157183   9.731571   9.117211  10.058625   7.802429
    31  H    8.381902   8.609378   7.710022   8.376286   6.378844
    32  H    1.069951   2.150081   3.350432   4.580328   3.824030
    33  H    2.143619   1.069804   2.091989   2.620247   3.305868
    34  H    3.934574   2.555222   2.086654   1.069985   3.258348
    35  H    4.193149   2.928465   2.086782   1.070031   2.927649
    36  H    4.435077   3.258639   2.086415   1.069846   2.554061
    37  H    7.476227   8.790891   9.166199  10.619469   8.395556
    38  H    6.287708   6.323489   5.336617   5.957543   4.027905
    39  H    3.824149   3.305870   2.091807   2.619048   1.069823
    40  C    7.796736   8.882286   8.850872  10.188238   7.775735
    41  H    8.244864   9.299319   9.228035  10.538473   8.131501
    42  H    8.465818   9.614470   9.666207  11.030900   8.637978
    43  C    2.875470   3.810353   3.837883   5.252811   2.990037
    44  H    3.554454   4.207087   3.907979   5.191078   2.812750
    45  H    2.159389   3.171715   3.436522   4.871172   2.899782
    46  H    2.146787   3.389869   3.841202   5.311136   3.389580
    47  H    2.704863   3.551552   3.554185   4.948262   2.749198
    48  H    7.850438   8.831746   8.665008   9.937933   7.513070
                   21         22         23         24         25
    21  C    0.000000
    22  C    1.401272   0.000000
    23  H    4.538500   3.369729   0.000000
    24  H    4.298566   3.038951   1.747431   0.000000
    25  H    4.044373   2.667338   1.747341   1.747343   0.000000
    26  H    3.872546   3.395936   2.472031   3.138477   3.686469
    27  H    2.552130   3.897096   7.049280   6.826161   6.513556
    28  H    4.908978   6.209251   9.409763   9.151600   8.785757
    29  H    6.126386   7.502874  10.521575  10.375970  10.111472
    30  H    5.122633   6.448186   9.341926   9.402013   8.931327
    31  H    6.276753   7.655514  10.194502  10.252452  10.185776
    32  H    6.611215   6.456172   5.158391   5.840760   6.697257
    33  H    8.503479   8.609892   7.587707   8.293736   9.110329
    34  H    9.704090  10.094476   9.626648  10.220122  11.019777
    35  H    9.445214   9.931136   9.624884  10.416656  10.952942
    36  H    9.228483   9.848464   9.956340  10.476455  11.162411
    37  H    2.146355   1.069815   3.686234   3.138398   2.471876
    38  H    6.104435   7.316746   9.192586   9.433240   9.587651
    39  H    7.128367   7.901809   8.546998   9.028578   9.518926
    40  C    1.539793   2.547923   5.889884   5.499078   5.078285
    41  H    2.148078   3.039228   6.215756   6.057979   5.353124
    42  H    2.147960   2.666945   5.993747   5.352228   4.941396
    43  C    3.838576   4.342140   5.078391   5.499182   5.889916
    44  H    4.044246   4.805724   5.908561   6.376937   6.585218
    45  H    4.538258   4.805670   4.838027   5.539534   5.908711
    46  H    4.250221   4.375435   4.343888   4.802312   5.421190
    47  H    4.298610   4.805966   5.539585   5.711841   6.377134
    48  H    2.147861   3.369483   6.662005   6.215001   5.993943
                   26         27         28         29         30
    26  H    0.000000
    27  H    6.048802   0.000000
    28  H    8.367162   2.374594   0.000000
    29  H    9.156417   3.621644   1.747472   0.000000
    30  H    8.122830   2.777651   1.747382   1.747237   0.000000
    31  H    8.392075   4.278617   3.622339   2.376010   2.778638
    32  H    3.168309   8.268162  10.343827  10.689040   9.862184
    33  H    5.493128   9.691858  11.475939  11.460011  10.792179
    34  H    7.334248  10.367260  11.784083  11.424337  11.007673
    35  H    7.342942   9.918021  11.222421  10.775307  10.226581
    36  H    7.534497   9.475476  10.625134  10.078683   9.794008
    37  H    4.280010   4.334539   6.495792   7.944198   6.899129
    38  H    7.046434   5.001502   5.411089   4.632317   4.492733
    39  H    6.109228   7.186861   8.344197   7.884402   7.491811
    40  C    5.412338   1.700050   3.765468   5.239942   4.333269
    41  H    5.856593   1.839624   3.602806   5.100724   3.935016
    42  H    5.856226   2.606343   4.340715   5.935763   5.174646
    43  C    2.736494   4.906326   6.875957   7.219687   6.375727
    44  H    3.686167   4.562555   6.304857   6.468089   5.611183
    45  H    2.471899   5.814953   7.812467   8.143764   7.196950
    46  H    1.873741   5.789823   7.897401   8.357564   7.505462
    47  H    3.138324   5.277720   7.161025   7.434241   6.820501
    48  H    5.856363   1.028501   2.984174   4.382049   3.737180
                   31         32         33         34         35
    31  H    0.000000
    32  H    9.279226   0.000000
    33  H    9.643471   2.471519   0.000000
    34  H    9.327137   4.613560   2.343072   0.000000
    35  H    8.616888   5.002045   3.022872   1.747365   0.000000
    36  H    7.877049   5.360934   3.576091   1.747124   1.747224
    37  H    8.365883   7.397680   9.615089  11.146463  10.993434
    38  H    2.419164   7.268814   7.327063   6.915962   6.217597
    39  H    5.775372   4.893786   4.177921   3.575208   3.021432
    40  C    5.949598   8.088941   9.869101  10.888633  10.563326
    41  H    5.941893   8.557540  10.290670  11.297401  10.815702
    42  H    6.850054   8.665061  10.570913  11.679277  11.450407
    43  C    5.992789   3.498651   4.824304   5.890974   5.648706
    44  H    5.089588   4.325158   5.259324   5.980081   5.489381
    45  H    6.836177   2.720689   4.113496   5.452705   5.161624
    46  H    7.197933   2.479147   4.275636   5.756831   5.757723
    47  H    6.131265   3.381847   4.559450   5.490035   5.530639
    48  H    5.124995   8.255143   9.852047  10.661750  10.357565
                   36         37         38         39         40
    36  H    0.000000
    37  H   10.915860   0.000000
    38  H    5.486258   8.235452   0.000000
    39  H    2.341338   8.962681   3.360647   0.000000
    40  C   10.236904   2.736296   6.377801   8.032167   0.000000
    41  H   10.603220   3.138821   6.529585   8.341688   1.070031
    42  H   11.094603   2.471239   7.352774   8.941383   1.070018
    43  C    5.525749   5.411955   4.363853   3.649974   5.094258
    44  H    5.334050   5.856017   3.422956   3.193597   5.078657
    45  H    5.337883   5.855962   5.057319   3.738413   5.889915
    46  H    5.755974   5.410886   5.525870   4.275267   5.673278
    47  H    5.134355   5.856260   4.406619   3.430744   5.499503
    48  H    9.878154   3.685862   5.725411   7.655863   1.069975
                   41         42         43         44         45
    41  H    0.000000
    42  H    1.747468   0.000000
    43  C    5.499031   5.890130   0.000000
    44  H    5.352495   5.994552   1.069822   0.000000
    45  H    6.215179   6.662106   1.069769   1.746949   0.000000
    46  H    6.153029   6.325191   1.230911   2.271879   1.034625
    47  H    6.057585   6.215922   1.069882   1.747149   1.746952
    48  H    1.747325   1.747461   5.078708   4.942649   5.994367
                   46         47         48
    46  H    0.000000
    47  H    1.431330   0.000000
    48  H    5.794840   5.353051   0.000000
 Stoichiometry    C22H24N2(1+,2)
 Framework group  C1[X(C22H24N2)]
 Deg. of freedom   138
 Full point group                 C1      NOp   1
 Largest Abelian subgroup         C1      NOp   1
 Largest concise Abelian subgroup C1      NOp   1
                         Standard orientation:                         
 ---------------------------------------------------------------------
 Center     Atomic      Atomic             Coordinates (Angstroms)
 Number     Number       Type             X           Y           Z
 ---------------------------------------------------------------------
      1          6           0       -1.212994    5.077955    0.117696
      2          6           0       -1.330105    3.543331    0.071075
      3          6           0       -0.175502    2.750797    0.117092
      4          6           0       -0.282243    1.354182    0.074639
      5          6           0       -1.543503    0.750183   -0.013946
      6          6           0       -1.659764   -0.784770   -0.060475
      7          6           0       -2.875692   -1.379345   -0.137585
      8          7           0       -3.034442   -2.831395   -0.417385
      9          6           0       -4.225468   -3.310035    0.299157
     10          6           0       -1.873212   -3.660272    0.003503
     11          6           0       -0.616384   -3.158491    0.086396
     12          6           0       -0.410581   -1.653368   -0.008718
     13          6           0        0.830102   -1.109382   -0.024841
     14          6           0        2.240775   -0.491911   -0.043113
     15          6           0        2.402286    0.891167   -0.120443
     16          6           0        3.693809    1.416866   -0.134625
     17          6           0        4.791316    0.547212   -0.071659
     18          7           0        4.607666   -0.782460    0.001588
     19          6           0        5.777061   -1.670832    0.064969
     20          6           0        3.373421   -1.314523    0.017825
     21          6           0       -2.698189    1.542720   -0.059947
     22          6           0       -2.591320    2.939264   -0.017434
     23          1           0       -0.345188    5.352337    0.680451
     24          1           0       -1.127600    5.459496   -0.878351
     25          1           0       -2.084535    5.488162    0.583382
     26          1           0        0.787626    3.211819    0.184614
     27          1           0       -3.752336   -0.780844   -0.003488
     28          1           0       -5.080543   -2.749196   -0.016133
     29          1           0       -4.379366   -4.346743    0.083127
     30          1           0       -4.083678   -3.182550    1.352008
     31          1           0       -2.033634   -4.691633    0.238090
     32          1           0        3.845701    2.474375   -0.192927
     33          1           0        5.784248    0.945285   -0.081920
     34          1           0        6.595675   -1.220627   -0.456619
     35          1           0        6.049557   -1.829583    1.087471
     36          1           0        5.537087   -2.608932   -0.389953
     37          1           0       -3.472841    3.544395   -0.052656
     38          1           0        0.219738   -3.811576    0.225248
     39          1           0        3.254779   -2.376060    0.077703
     40          6           0       -4.084344    0.879357   -0.157340
     41          1           0       -4.463245    0.698761    0.826929
     42          1           0       -4.753443    1.527342   -0.683992
     43          6           0        0.986605    0.483209    0.125496
     44          1           0        0.758983   -0.451485    0.593529
     45          1           0        1.743617    0.988468    0.687681
     46          1           0        1.550656    1.537190   -0.167958
     47          1           0        1.338815    0.307619   -0.869374
     48          1           0       -3.999084   -0.048907   -0.682604
 ---------------------------------------------------------------------
 Rotational constants (GHZ):           0.3043868           0.1847950           0.1157132
 Standard basis: 6-31G (6D, 7F)
 There are   264 symmetry adapted cartesian basis functions of A   symmetry.
 There are   264 symmetry adapted basis functions of A   symmetry.
   264 basis functions,   624 primitive gaussians,   264 cartesian basis functions
    85 alpha electrons       84 beta electrons
       nuclear repulsion energy      2003.6399814337 Hartrees.
 NAtoms=   48 NActive=   48 NUniq=   48 SFac= 1.00D+00 NAtFMM=   60 NAOKFM=F Big=F
 Integral buffers will be    131072 words long.
 Regular integral format.
 Two-electron integral symmetry is turned on.
 One-electron integrals computed using PRISM.
 NBasis=   264 RedAO= T EigKep=  3.30D-04  NBF=   264
 NBsUse=   264 1.00D-06 EigRej= -1.00D+00 NBFU=   264
 ExpMin= 1.61D-01 ExpMax= 4.17D+03 ExpMxC= 6.27D+02 IAcc=3 IRadAn=         5 AccDes= 0.00D+00
 Harris functional with IExCor=  402 and IRadAn=       5 diagonalized for initial guess.
 HarFok:  IExCor=  402 AccDes= 0.00D+00 IRadAn=         5 IDoV= 1 UseB2=F ITyADJ=14
 ICtDFT=  3500011 ScaDFX=  1.000000  1.000000  1.000000  1.000000
 FoFCou: FMM=F IPFlag=           0 FMFlag=      100000 FMFlg1=           0
         NFxFlg=           0 DoJE=T BraDBF=F KetDBF=T FulRan=T
         wScrn=  0.000000 ICntrl=       500 IOpCl=  0 I1Cent=   200000004 NGrid=           0
         NMat0=    1 NMatS0=      1 NMatT0=    0 NMatD0=    1 NMtDS0=    0 NMtDT0=    0
 Petite list used in FoFCou.
 Initial guess <Sx>= 0.0000 <Sy>= 0.0000 <Sz>= 0.5000 <S**2>= 0.7500 S= 0.5000
 Requested convergence on RMS density matrix=1.00D-08 within 128 cycles.
 Requested convergence on MAX density matrix=1.00D-06.
 Requested convergence on             energy=1.00D-06.
 No special actions if energy rises.
 Integral accuracy reduced to 1.0D-05 until final iterations.
 Initial convergence to 1.0D-05 achieved.  Increase integral accuracy.
 SCF Done:  E(UB3LYP) =  -960.676474616     A.U. after   27 cycles
            NFock= 27  Conv=0.72D-08     -V/T= 2.0008
 <Sx>= 0.0000 <Sy>= 0.0000 <Sz>= 0.5000 <S**2>= 0.7607 S= 0.5054
 <L.S>=  0.00000000000    
 Annihilation of the first spin contaminant:
 S**2 before annihilation     0.7607,   after     0.7501
 DoSCS=F DFT=T ScalE2(SS,OS)=  1.000000  1.000000
 ExpMin= 1.61D-01 ExpMax= 4.17D+03 ExpMxC= 6.27D+02 IAcc=3 IRadAn=         5 AccDes= 0.00D+00
 HarFok:  IExCor=  205 AccDes= 0.00D+00 IRadAn=         5 IDoV=-2 UseB2=F ITyADJ=14
 ICtDFT= 12500011 ScaDFX=  1.000000  1.000000  1.000000  1.000000
 GSVD:  LWork=        -768 too small for GESVD, short by        3240 words or        3240 for optimal perf.
 Range of M.O.s used for correlation:    25   264
 NBasis=   264 NAE=    85 NBE=    84 NFC=    24 NFV=     0
 NROrb=    240 NOA=    61 NOB=    60 NVA=   179 NVB=   180

 **** Warning!!: The largest alpha MO coefficient is  0.14581838D+02


 **** Warning!!: The smallest alpha delta epsilon is  0.87679572D-01


 **** Warning!!: The largest beta MO coefficient is  0.14563374D+02


 **** Warning!!: The smallest beta delta epsilon is  0.75164076D-01

 Ignoring spin specification with unrestricted ground state.
 Keep R1, R2, and R3 ints in memory in canonical form, NReq=1874563910.
 Orbital symmetries:
 Alpha Orbitals:
       Occupied  (A) (A) (A) (A) (A) (A) (A) (A) (A) (A) (A) (A)
                 (A) (A) (A) (A) (A) (A) (A) (A) (A) (A) (A) (A)
                 (A) (A) (A) (A) (A) (A) (A) (A) (A) (A) (A) (A)
                 (A) (A) (A) (A) (A) (A) (A) (A) (A) (A) (A) (A)
                 (A) (A) (A) (A) (A) (A) (A) (A) (A) (A) (A) (A)
                 (A) (A) (A) (A) (A) (A) (A) (A) (A) (A) (A) (A)
                 (A) (A) (A) (A) (A) (A) (A) (A) (A) (A) (A) (A)
                 (A)
       Virtual   (A) (A) (A) (A) (A) (A) (A) (A) (A) (A) (A) (A)
                 (A) (A) (A) (A) (A) (A) (A) (A) (A) (A) (A) (A)
                 (A) (A) (A) (A) (A) (A) (A) (A) (A) (A) (A) (A)
                 (A) (A) (A) (A) (A) (A) (A) (A) (A) (A) (A) (A)
                 (A) (A) (A) (A) (A) (A) (A) (A) (A) (A) (A) (A)
                 (A) (A) (A) (A) (A) (A) (A) (A) (A) (A) (A) (A)
                 (A) (A) (A) (A) (A) (A) (A) (A) (A) (A) (A) (A)
                 (A) (A) (A) (A) (A) (A) (A) (A) (A) (A) (A) (A)
                 (A) (A) (A) (A) (A) (A) (A) (A) (A) (A) (A) (A)
                 (A) (A) (A) (A) (A) (A) (A) (A) (A) (A) (A) (A)
                 (A) (A) (A) (A) (A) (A) (A) (A) (A) (A) (A) (A)
                 (A) (A) (A) (A) (A) (A) (A) (A) (A) (A) (A) (A)
                 (A) (A) (A) (A) (A) (A) (A) (A) (A) (A) (A) (A)
                 (A) (A) (A) (A) (A) (A) (A) (A) (A) (A) (A) (A)
                 (A) (A) (A) (A) (A) (A) (A) (A) (A) (A) (A)
 Beta  Orbitals:
       Occupied  (A) (A) (A) (A) (A) (A) (A) (A) (A) (A) (A) (A)
                 (A) (A) (A) (A) (A) (A) (A) (A) (A) (A) (A) (A)
                 (A) (A) (A) (A) (A) (A) (A) (A) (A) (A) (A) (A)
                 (A) (A) (A) (A) (A) (A) (A) (A) (A) (A) (A) (A)
                 (A) (A) (A) (A) (A) (A) (A) (A) (A) (A) (A) (A)
                 (A) (A) (A) (A) (A) (A) (A) (A) (A) (A) (A) (A)
                 (A) (A) (A) (A) (A) (A) (A) (A) (A) (A) (A) (A)
       Virtual   (A) (A) (A) (A) (A) (A) (A) (A) (A) (A) (A) (A)
                 (A) (A) (A) (A) (A) (A) (A) (A) (A) (A) (A) (A)
                 (A) (A) (A) (A) (A) (A) (A) (A) (A) (A) (A) (A)
                 (A) (A) (A) (A) (A) (A) (A) (A) (A) (A) (A) (A)
                 (A) (A) (A) (A) (A) (A) (A) (A) (A) (A) (A) (A)
                 (A) (A) (A) (A) (A) (A) (A) (A) (A) (A) (A) (A)
                 (A) (A) (A) (A) (A) (A) (A) (A) (A) (A) (A) (A)
                 (A) (A) (A) (A) (A) (A) (A) (A) (A) (A) (A) (A)
                 (A) (A) (A) (A) (A) (A) (A) (A) (A) (A) (A) (A)
                 (A) (A) (A) (A) (A) (A) (A) (A) (A) (A) (A) (A)
                 (A) (A) (A) (A) (A) (A) (A) (A) (A) (A) (A) (A)
                 (A) (A) (A) (A) (A) (A) (A) (A) (A) (A) (A) (A)
                 (A) (A) (A) (A) (A) (A) (A) (A) (A) (A) (A) (A)
                 (A) (A) (A) (A) (A) (A) (A) (A) (A) (A) (A) (A)
                 (A) (A) (A) (A) (A) (A) (A) (A) (A) (A) (A) (A)
    12 initial guesses have been made.
 Convergence on wavefunction:    0.001000000000000
 Iteration     1 Dimension    12 NMult     0 NNew     12
 CISAX will form    12 AO SS matrices at one time.
 Iteration     2 Dimension    18 NMult    12 NNew      6
 Iteration     3 Dimension    24 NMult    18 NNew      6
 Iteration     4 Dimension    30 NMult    24 NNew      6
 Iteration     5 Dimension    36 NMult    30 NNew      6
 Iteration     6 Dimension    42 NMult    36 NNew      6
 Iteration     7 Dimension    48 NMult    42 NNew      6
 Iteration     8 Dimension    54 NMult    48 NNew      6
 Iteration     9 Dimension    56 NMult    54 NNew      2
 ***********************************************************************
 Excited states from <AA,BB:AA,BB> singles matrix:
 ***********************************************************************
 
 ExtSpn:  IState=     1 X2= 1.023 Y2= 0.023 X2-Y2-1= 2.22D-16
          S2Grnd=  0.761 Ra=  0.059 Rb=  0.055 T=  0.111 S2Ext=  0.225 S2=  0.986
 ExtSpn:  IState=     2 X2= 1.013 Y2= 0.013 X2-Y2-1= 4.44D-16
          S2Grnd=  0.761 Ra=  0.193 Rb=  0.151 T=  0.337 S2Ext=  0.682 S2=  1.442
 ExtSpn:  IState=     3 X2= 1.017 Y2= 0.017 X2-Y2-1=-1.11D-16
          S2Grnd=  0.761 Ra=  0.148 Rb=  0.441 T=  0.446 S2Ext=  1.035 S2=  1.796
 Ground to excited state transition densities written to RWF  633
 Ground to excited state transition electric dipole moments (Au):
       state          X           Y           Z        Dip. S.      Osc.
         1         0.0013      0.2654     -0.0453      0.0725      0.0016
         2        -0.0396     -0.2046     -0.0286      0.0443      0.0014
         3        -0.0595     -0.0954     -0.0044      0.0127      0.0005
 Ground to excited state transition velocity dipole moments (Au):
       state          X           Y           Z        Dip. S.      Osc.
         1         0.0042     -0.0101      0.0029      0.0001      0.0026
         2        -0.0030      0.0076      0.0032      0.0001      0.0011
         3         0.0034      0.0017      0.0017      0.0000      0.0002
 Ground to excited state transition magnetic dipole moments (Au):
       state          X           Y           Z
         1        -0.1626      0.0542     -0.1716
         2         0.0147     -0.0463      0.6231
         3        -0.1080      0.0314      0.6002
 Ground to excited state transition velocity quadrupole moments (Au):
       state          XX          YY          ZZ          XY          XZ          YZ
         1         0.0897      0.0205      0.0075      0.0350      0.0150     -0.0039
         2        -0.0647      0.0067     -0.0001     -0.0560      0.0220      0.0012
         3         0.0170      0.0112      0.0034     -0.0380      0.0176     -0.0041
 <0|del|b> * <b|rxdel|0> + <0|del|b> * <b|delr+rdel|0>
 Rotatory Strengths (R) in cgs (10**-40 erg-esu-cm/Gauss)
       state          XX          YY          ZZ    R(velocity)    E-M Angle
         1        -8.5389    -14.0174    -14.7120    -12.4228      129.10
         2         9.9193     16.3155     -1.7392      8.1652       73.20
         3         6.4258      4.5977     -1.8040      3.0731       74.03
 1/2[<0|r|b>*<b|rxdel|0> + (<0|rxdel|b>*<b|r|0>)*]
 Rotatory Strengths (R) in cgs (10**-40 erg-esu-cm/Gauss)
       state          XX          YY          ZZ     R(length)
         1         0.1526    -10.1732     -5.4970     -5.1725
         2         0.4109     -6.6949     12.6069      2.1076
         3        -4.5437      2.1155      1.8791     -0.1830
  1/2[<0|del|b>*<b|r|0> + (<0|r|b>*<b|del|0>)*] (Au)
       state          X           Y           Z        Dip. S.   Osc.(frdel)
         1         0.0000     -0.0027     -0.0001      0.0028      0.0019
         2         0.0001     -0.0016     -0.0001      0.0015      0.0010
         3        -0.0002     -0.0002     -0.0000      0.0004      0.0002

 Excitation energies and oscillator strengths:
 
 Excited State   1:  2.224-A      0.8905 eV 1392.25 nm  f=0.0016  <S**2>=0.986
     84A -> 86A       -0.10583
     84A -> 87A        0.15983
     85A -> 86A        0.16294
     84B -> 85B        0.95947
 This state for optimization and/or second-order correction.
 Total Energy, E(TD-HF/TD-DFT) =  -960.643748253    
 Copying the excited state density for this state as the 1-particle RhoCI density.
 
 Excited State   2:  2.602-A      1.2504 eV  991.54 nm  f=0.0014  <S**2>=1.442
     85A -> 86A        0.87587
     84B -> 85B       -0.15966
     84B -> 86B       -0.40178
     84B -> 87B        0.12046
 
 Excited State   3:  2.860-A      1.4603 eV  849.04 nm  f=0.0005  <S**2>=1.796
     84A -> 86A        0.52070
     85A -> 86A        0.26744
     85A -> 87A        0.41074
     84B -> 86B        0.65043
     84B -> 87B       -0.21165
 SavETr:  write IOETrn=   770 NScale= 10 NData=  16 NLR=1 NState=    3 LETran=      64.

 **********************************************************************

            Population analysis using the SCF Density.

 **********************************************************************

 Orbital symmetries:
 Alpha Orbitals:
       Occupied  (A) (A) (A) (A) (A) (A) (A) (A) (A) (A) (A) (A)
                 (A) (A) (A) (A) (A) (A) (A) (A) (A) (A) (A) (A)
                 (A) (A) (A) (A) (A) (A) (A) (A) (A) (A) (A) (A)
                 (A) (A) (A) (A) (A) (A) (A) (A) (A) (A) (A) (A)
                 (A) (A) (A) (A) (A) (A) (A) (A) (A) (A) (A) (A)
                 (A) (A) (A) (A) (A) (A) (A) (A) (A) (A) (A) (A)
                 (A) (A) (A) (A) (A) (A) (A) (A) (A) (A) (A) (A)
                 (A)
       Virtual   (A) (A) (A) (A) (A) (A) (A) (A) (A) (A) (A) (A)
                 (A) (A) (A) (A) (A) (A) (A) (A) (A) (A) (A) (A)
                 (A) (A) (A) (A) (A) (A) (A) (A) (A) (A) (A) (A)
                 (A) (A) (A) (A) (A) (A) (A) (A) (A) (A) (A) (A)
                 (A) (A) (A) (A) (A) (A) (A) (A) (A) (A) (A) (A)
                 (A) (A) (A) (A) (A) (A) (A) (A) (A) (A) (A) (A)
                 (A) (A) (A) (A) (A) (A) (A) (A) (A) (A) (A) (A)
                 (A) (A) (A) (A) (A) (A) (A) (A) (A) (A) (A) (A)
                 (A) (A) (A) (A) (A) (A) (A) (A) (A) (A) (A) (A)
                 (A) (A) (A) (A) (A) (A) (A) (A) (A) (A) (A) (A)
                 (A) (A) (A) (A) (A) (A) (A) (A) (A) (A) (A) (A)
                 (A) (A) (A) (A) (A) (A) (A) (A) (A) (A) (A) (A)
                 (A) (A) (A) (A) (A) (A) (A) (A) (A) (A) (A) (A)
                 (A) (A) (A) (A) (A) (A) (A) (A) (A) (A) (A) (A)
                 (A) (A) (A) (A) (A) (A) (A) (A) (A) (A) (A)
 Beta  Orbitals:
       Occupied  (A) (A) (A) (A) (A) (A) (A) (A) (A) (A) (A) (A)
                 (A) (A) (A) (A) (A) (A) (A) (A) (A) (A) (A) (A)
                 (A) (A) (A) (A) (A) (A) (A) (A) (A) (A) (A) (A)
                 (A) (A) (A) (A) (A) (A) (A) (A) (A) (A) (A) (A)
                 (A) (A) (A) (A) (A) (A) (A) (A) (A) (A) (A) (A)
                 (A) (A) (A) (A) (A) (A) (A) (A) (A) (A) (A) (A)
                 (A) (A) (A) (A) (A) (A) (A) (A) (A) (A) (A) (A)
       Virtual   (A) (A) (A) (A) (A) (A) (A) (A) (A) (A) (A) (A)
                 (A) (A) (A) (A) (A) (A) (A) (A) (A) (A) (A) (A)
                 (A) (A) (A) (A) (A) (A) (A) (A) (A) (A) (A) (A)
                 (A) (A) (A) (A) (A) (A) (A) (A) (A) (A) (A) (A)
                 (A) (A) (A) (A) (A) (A) (A) (A) (A) (A) (A) (A)
                 (A) (A) (A) (A) (A) (A) (A) (A) (A) (A) (A) (A)
                 (A) (A) (A) (A) (A) (A) (A) (A) (A) (A) (A) (A)
                 (A) (A) (A) (A) (A) (A) (A) (A) (A) (A) (A) (A)
                 (A) (A) (A) (A) (A) (A) (A) (A) (A) (A) (A) (A)
                 (A) (A) (A) (A) (A) (A) (A) (A) (A) (A) (A) (A)
                 (A) (A) (A) (A) (A) (A) (A) (A) (A) (A) (A) (A)
                 (A) (A) (A) (A) (A) (A) (A) (A) (A) (A) (A) (A)
                 (A) (A) (A) (A) (A) (A) (A) (A) (A) (A) (A) (A)
                 (A) (A) (A) (A) (A) (A) (A) (A) (A) (A) (A) (A)
                 (A) (A) (A) (A) (A) (A) (A) (A) (A) (A) (A) (A)
 The electronic state is 2-A.
 Alpha  occ. eigenvalues --  -14.52675 -14.48010 -10.41731 -10.37288 -10.36868
 Alpha  occ. eigenvalues --  -10.35817 -10.35126 -10.34886 -10.34814 -10.33761
 Alpha  occ. eigenvalues --  -10.33336 -10.33154 -10.32547 -10.32491 -10.32191
 Alpha  occ. eigenvalues --  -10.31798 -10.31150 -10.30605 -10.30313 -10.30297
 Alpha  occ. eigenvalues --  -10.29856 -10.28921 -10.26965 -10.26369  -1.30405
 Alpha  occ. eigenvalues --   -1.13712  -1.08702  -1.05289  -0.99491  -0.94147
 Alpha  occ. eigenvalues --   -0.93349  -0.91976  -0.90354  -0.89152  -0.86729
 Alpha  occ. eigenvalues --   -0.84815  -0.84184  -0.82926  -0.80608  -0.79745
 Alpha  occ. eigenvalues --   -0.78397  -0.75592  -0.74919  -0.72588  -0.72262
 Alpha  occ. eigenvalues --   -0.69753  -0.69335  -0.66540  -0.65095  -0.62587
 Alpha  occ. eigenvalues --   -0.61749  -0.60675  -0.60157  -0.59447  -0.59189
 Alpha  occ. eigenvalues --   -0.57932  -0.57392  -0.56670  -0.55484  -0.55217
 Alpha  occ. eigenvalues --   -0.54055  -0.53322  -0.53171  -0.52804  -0.52177
 Alpha  occ. eigenvalues --   -0.51891  -0.51128  -0.50660  -0.49854  -0.49120
 Alpha  occ. eigenvalues --   -0.48404  -0.47956  -0.47265  -0.45598  -0.44908
 Alpha  occ. eigenvalues --   -0.43796  -0.41668  -0.40707  -0.40117  -0.38281
 Alpha  occ. eigenvalues --   -0.35893  -0.35219  -0.32921  -0.27586  -0.25870
 Alpha virt. eigenvalues --   -0.17102  -0.15222  -0.13335  -0.11001  -0.09444
 Alpha virt. eigenvalues --   -0.08420  -0.06817  -0.06163  -0.04968  -0.01952
 Alpha virt. eigenvalues --   -0.01189  -0.00660   0.00505   0.01030   0.01465
 Alpha virt. eigenvalues --    0.01836   0.02943   0.03241   0.04006   0.04338
 Alpha virt. eigenvalues --    0.04510   0.05052   0.05413   0.06063   0.06234
 Alpha virt. eigenvalues --    0.07129   0.07403   0.07958   0.08203   0.08246
 Alpha virt. eigenvalues --    0.08991   0.09853   0.10242   0.11303   0.11628
 Alpha virt. eigenvalues --    0.12279   0.12942   0.13599   0.14016   0.15551
 Alpha virt. eigenvalues --    0.16082   0.16540   0.17104   0.17841   0.20154
 Alpha virt. eigenvalues --    0.22242   0.24676   0.25553   0.26309   0.27145
 Alpha virt. eigenvalues --    0.29275   0.29789   0.30971   0.32552   0.33902
 Alpha virt. eigenvalues --    0.34431   0.36170   0.38014   0.38937   0.39510
 Alpha virt. eigenvalues --    0.40499   0.40979   0.41944   0.42566   0.43259
 Alpha virt. eigenvalues --    0.43472   0.45051   0.45439   0.46055   0.46708
 Alpha virt. eigenvalues --    0.46768   0.47176   0.47850   0.48168   0.48638
 Alpha virt. eigenvalues --    0.48991   0.49822   0.50319   0.51181   0.51298
 Alpha virt. eigenvalues --    0.51616   0.52317   0.52844   0.53392   0.54115
 Alpha virt. eigenvalues --    0.55397   0.56211   0.57126   0.57450   0.58296
 Alpha virt. eigenvalues --    0.58949   0.60062   0.61205   0.62267   0.62534
 Alpha virt. eigenvalues --    0.64159   0.64423   0.65175   0.66116   0.67129
 Alpha virt. eigenvalues --    0.67650   0.68549   0.68770   0.69221   0.70713
 Alpha virt. eigenvalues --    0.71544   0.72215   0.73709   0.74778   0.75692
 Alpha virt. eigenvalues --    0.76618   0.76968   0.77640   0.78158   0.78733
 Alpha virt. eigenvalues --    0.80051   0.80614   0.81716   0.82603   0.83044
 Alpha virt. eigenvalues --    0.84264   0.84544   0.85445   0.86546   0.86828
 Alpha virt. eigenvalues --    0.87256   0.88255   0.89114   0.89384   0.90069
 Alpha virt. eigenvalues --    0.90652   0.91058   0.92053   0.92301   0.93880
 Alpha virt. eigenvalues --    0.94364   0.95814   0.96548   0.98078   1.00241
 Alpha virt. eigenvalues --    1.01244   1.02144   1.03376   1.05728   1.06556
 Alpha virt. eigenvalues --    1.06728   1.08213   1.09415   1.09768   1.10922
 Alpha virt. eigenvalues --    1.12767   1.13373   1.14316   1.16616   1.18045
 Alpha virt. eigenvalues --    1.18547   1.19386   1.21301   1.24194   1.28262
 Alpha virt. eigenvalues --    1.30319   1.32869   1.33468   1.35701   1.37623
 Alpha virt. eigenvalues --    1.38642   1.39770   1.41741   1.43466   1.45825
 Alpha virt. eigenvalues --    1.48169   1.51669   1.54968   1.63026   1.78163
 Alpha virt. eigenvalues --    1.80021   1.81261   1.85231   2.11724
  Beta  occ. eigenvalues --  -14.52599 -14.47995 -10.40828 -10.37281 -10.36425
  Beta  occ. eigenvalues --  -10.35536 -10.34836 -10.34769 -10.34617 -10.33765
  Beta  occ. eigenvalues --  -10.33304 -10.33158 -10.32488 -10.32480 -10.32177
  Beta  occ. eigenvalues --  -10.31783 -10.31154 -10.30606 -10.30297 -10.30263
  Beta  occ. eigenvalues --  -10.29855 -10.28908 -10.26963 -10.26369  -1.28621
  Beta  occ. eigenvalues --   -1.13466  -1.07681  -1.05246  -0.99375  -0.93701
  Beta  occ. eigenvalues --   -0.93187  -0.91720  -0.90120  -0.89041  -0.86703
  Beta  occ. eigenvalues --   -0.84386  -0.83879  -0.82807  -0.80012  -0.79715
  Beta  occ. eigenvalues --   -0.77521  -0.75448  -0.74490  -0.72308  -0.72110
  Beta  occ. eigenvalues --   -0.69652  -0.68722  -0.66304  -0.64939  -0.62452
  Beta  occ. eigenvalues --   -0.61579  -0.60441  -0.59883  -0.59303  -0.59023
  Beta  occ. eigenvalues --   -0.57843  -0.57320  -0.56432  -0.55410  -0.54969
  Beta  occ. eigenvalues --   -0.54044  -0.53268  -0.53061  -0.52733  -0.51882
  Beta  occ. eigenvalues --   -0.51841  -0.51025  -0.50279  -0.49748  -0.49091
  Beta  occ. eigenvalues --   -0.48336  -0.47873  -0.47149  -0.45564  -0.44721
  Beta  occ. eigenvalues --   -0.43550  -0.41362  -0.39884  -0.39770  -0.38128
  Beta  occ. eigenvalues --   -0.35628  -0.35031  -0.32619  -0.26315
  Beta virt. eigenvalues --   -0.18799  -0.16912  -0.14609  -0.13240  -0.10763
  Beta virt. eigenvalues --   -0.08720  -0.08258  -0.05687  -0.05649  -0.04358
  Beta virt. eigenvalues --   -0.01721  -0.01072  -0.00555   0.00753   0.01123
  Beta virt. eigenvalues --    0.01556   0.02025   0.03052   0.03285   0.04065
  Beta virt. eigenvalues --    0.04414   0.04581   0.05163   0.05514   0.06122
  Beta virt. eigenvalues --    0.06391   0.07281   0.07474   0.08066   0.08326
  Beta virt. eigenvalues --    0.08607   0.09022   0.09897   0.10326   0.11361
  Beta virt. eigenvalues --    0.11736   0.12564   0.13067   0.13646   0.14235
  Beta virt. eigenvalues --    0.15648   0.16282   0.16662   0.17208   0.18026
  Beta virt. eigenvalues --    0.20323   0.22512   0.24780   0.25668   0.26416
  Beta virt. eigenvalues --    0.27376   0.29491   0.29946   0.31164   0.32700
  Beta virt. eigenvalues --    0.34326   0.34667   0.36462   0.38129   0.39085
  Beta virt. eigenvalues --    0.39665   0.40669   0.41092   0.42102   0.42677
  Beta virt. eigenvalues --    0.43345   0.43697   0.45165   0.45685   0.46225
  Beta virt. eigenvalues --    0.46876   0.46906   0.47204   0.47899   0.48220
  Beta virt. eigenvalues --    0.48711   0.49201   0.49906   0.50430   0.51298
  Beta virt. eigenvalues --    0.51477   0.51726   0.52456   0.53097   0.53578
  Beta virt. eigenvalues --    0.54515   0.55738   0.56355   0.57209   0.57632
  Beta virt. eigenvalues --    0.58549   0.59081   0.60465   0.61304   0.62440
  Beta virt. eigenvalues --    0.62713   0.64403   0.64613   0.65271   0.66340
  Beta virt. eigenvalues --    0.67247   0.67749   0.68707   0.68887   0.69444
  Beta virt. eigenvalues --    0.70936   0.71688   0.72373   0.73820   0.75032
  Beta virt. eigenvalues --    0.75773   0.76665   0.77263   0.77906   0.78682
  Beta virt. eigenvalues --    0.78941   0.80156   0.80635   0.81822   0.82622
  Beta virt. eigenvalues --    0.83169   0.84340   0.84577   0.85575   0.86701
  Beta virt. eigenvalues --    0.86935   0.87347   0.88268   0.89164   0.89437
  Beta virt. eigenvalues --    0.90250   0.90682   0.91127   0.92081   0.92726
  Beta virt. eigenvalues --    0.94164   0.94445   0.95896   0.96738   0.98184
  Beta virt. eigenvalues --    1.00350   1.01391   1.02371   1.03420   1.05803
  Beta virt. eigenvalues --    1.06686   1.06882   1.08319   1.09490   1.09934
  Beta virt. eigenvalues --    1.11081   1.12917   1.13586   1.14395   1.16897
  Beta virt. eigenvalues --    1.18167   1.18685   1.19492   1.21471   1.24288
  Beta virt. eigenvalues --    1.28357   1.30454   1.33089   1.33621   1.35840
  Beta virt. eigenvalues --    1.37702   1.38731   1.39936   1.41883   1.43646
  Beta virt. eigenvalues --    1.45904   1.48379   1.51763   1.55148   1.63044
  Beta virt. eigenvalues --    1.78360   1.80190   1.81280   1.85280   2.12440
          Condensed to atoms (all electrons):
               1          2          3          4          5          6
     1  C    5.121016   0.303037  -0.036173   0.004714   0.001697   0.000008
     2  C    0.303037   4.849583   0.459166  -0.018689  -0.042422  -0.000544
     3  C   -0.036173   0.459166   5.186821   0.425088  -0.029282   0.010299
     4  C    0.004714  -0.018689   0.425088   5.546511   0.347892  -0.012714
     5  C    0.001697  -0.042422  -0.029282   0.347892   5.079488   0.260579
     6  C    0.000008  -0.000544   0.010299  -0.012714   0.260579   5.128359
     7  C   -0.000000   0.000019  -0.000194   0.013713  -0.023833   0.425233
     8  N    0.000000  -0.000000   0.000000  -0.000172   0.001914  -0.030025
     9  C   -0.000000  -0.000000   0.000000   0.000003  -0.000134   0.006071
    10  C   -0.000000   0.000000   0.000000   0.000053  -0.000039  -0.022992
    11  C    0.000000   0.000000  -0.000001  -0.000650   0.005464  -0.028417
    12  C   -0.000000   0.000024  -0.000524  -0.062508   0.013673   0.330543
    13  C    0.000000   0.000161   0.000242  -0.101011  -0.020108  -0.069489
    14  C   -0.000001   0.000045   0.000660   0.065650  -0.001717   0.004707
    15  C   -0.000014   0.002021  -0.025442  -0.122555   0.010290  -0.001985
    16  C    0.000000  -0.000008   0.000017  -0.005386  -0.000006   0.000004
    17  C   -0.000000   0.000000   0.000010   0.000016  -0.000001   0.000000
    18  N   -0.000000   0.000000  -0.000000   0.000008  -0.000001   0.000002
    19  C    0.000000   0.000000   0.000000  -0.000000   0.000000  -0.000000
    20  C    0.000000  -0.000000   0.000065  -0.002570   0.000040  -0.000060
    21  C    0.004914  -0.027447  -0.063567  -0.060521   0.453076  -0.050981
    22  C   -0.038472   0.520265  -0.055382  -0.051475  -0.040672   0.009345
    23  H    0.373319  -0.036951  -0.003254   0.000628  -0.000027  -0.000000
    24  H    0.372818  -0.030510  -0.003159  -0.000267   0.000012   0.000000
    25  H    0.375331  -0.034349   0.003113  -0.000204  -0.000025  -0.000000
    26  H   -0.004930  -0.020195   0.341147  -0.045364   0.002718  -0.000164
    27  H    0.000000  -0.000006   0.000005  -0.000600  -0.000816  -0.054597
    28  H    0.000000   0.000000  -0.000000  -0.000000   0.000013   0.000658
    29  H    0.000000   0.000000  -0.000000  -0.000000   0.000004  -0.000220
    30  H   -0.000000  -0.000000   0.000000  -0.000000  -0.000068  -0.000579
    31  H    0.000000   0.000000   0.000000  -0.000000   0.000006   0.000729
    32  H   -0.000001   0.000008  -0.000336   0.000170   0.000006  -0.000000
    33  H    0.000000  -0.000000  -0.000000   0.000001  -0.000000   0.000000
    34  H   -0.000000   0.000000   0.000000  -0.000000   0.000000  -0.000000
    35  H   -0.000000  -0.000000  -0.000000   0.000000  -0.000000   0.000000
    36  H    0.000000   0.000000   0.000000  -0.000000   0.000000  -0.000000
    37  H   -0.005578  -0.033748   0.005548   0.000632   0.004601  -0.000198
    38  H   -0.000000  -0.000000  -0.000000  -0.000003  -0.000052   0.002965
    39  H   -0.000000  -0.000000  -0.000000   0.000086  -0.000003  -0.000009
    40  C   -0.000189   0.004573   0.001140   0.009498  -0.023135  -0.028423
    41  H    0.000004  -0.000139  -0.000001  -0.000313  -0.003879   0.003321
    42  H   -0.000005   0.000361   0.000024  -0.000269   0.002181   0.000909
    43  C   -0.000399   0.013839  -0.083949  -0.115193   0.028231  -0.053228
    44  H   -0.000001  -0.000087   0.002005  -0.000218  -0.010251  -0.002880
    45  H    0.000010   0.000363   0.016342  -0.079171   0.000485  -0.000171
    46  H    0.000063  -0.001869   0.018517   0.061812   0.005516  -0.000898
    47  H    0.000004  -0.000082   0.001677  -0.071727  -0.006615   0.003712
    48  H    0.000002  -0.000131  -0.000026   0.000544   0.003262  -0.006608
               7          8          9         10         11         12
     1  C   -0.000000   0.000000  -0.000000  -0.000000   0.000000  -0.000000
     2  C    0.000019  -0.000000  -0.000000   0.000000   0.000000   0.000024
     3  C   -0.000194   0.000000   0.000000   0.000000  -0.000001  -0.000524
     4  C    0.013713  -0.000172   0.000003   0.000053  -0.000650  -0.062508
     5  C   -0.023833   0.001914  -0.000134  -0.000039   0.005464   0.013673
     6  C    0.425233  -0.030025   0.006071  -0.022992  -0.028417   0.330543
     7  C    5.412271   0.214962  -0.051203  -0.029931  -0.033562  -0.049580
     8  N    0.214962   7.051313   0.216763   0.273804  -0.047829  -0.015943
     9  C   -0.051203   0.216763   5.043092  -0.053276   0.004545   0.000280
    10  C   -0.029931   0.273804  -0.053276   4.941251   0.529879  -0.022164
    11  C   -0.033562  -0.047829   0.004545   0.529879   4.992564   0.404695
    12  C   -0.049580  -0.015943   0.000280  -0.022164   0.404695   5.231779
    13  C    0.019620   0.000776  -0.000014   0.010907  -0.064974   0.356753
    14  C   -0.000061   0.000002  -0.000000   0.000175  -0.003354  -0.043637
    15  C    0.000001   0.000000   0.000000   0.000002  -0.000015   0.008963
    16  C   -0.000000   0.000000   0.000000   0.000000  -0.000001   0.000330
    17  C    0.000000  -0.000000  -0.000000   0.000000  -0.000000  -0.000002
    18  N   -0.000000  -0.000000   0.000000   0.000000  -0.000004   0.000088
    19  C    0.000000   0.000000   0.000000  -0.000000   0.000000  -0.000000
    20  C   -0.000003   0.000000   0.000000  -0.000004   0.000126   0.006036
    21  C   -0.022634   0.000797   0.000031  -0.000022   0.000016   0.007828
    22  C   -0.000432   0.000002   0.000000   0.000000  -0.000000  -0.000164
    23  H    0.000000   0.000000   0.000000  -0.000000  -0.000000   0.000000
    24  H   -0.000000  -0.000000  -0.000000   0.000000  -0.000000  -0.000000
    25  H    0.000000   0.000000   0.000000   0.000000  -0.000000  -0.000000
    26  H    0.000001  -0.000000   0.000000  -0.000000  -0.000000  -0.000004
    27  H    0.370844  -0.029424  -0.004023   0.002638   0.000966   0.002346
    28  H   -0.004638  -0.038995   0.377744   0.004796  -0.000277  -0.000034
    29  H    0.004460  -0.038545   0.379261  -0.002572   0.000348  -0.000032
    30  H   -0.000939  -0.057089   0.375189  -0.001798   0.000695   0.000259
    31  H    0.003258  -0.041890  -0.002571   0.362033  -0.028113   0.002782
    32  H    0.000000  -0.000000  -0.000000  -0.000000   0.000000  -0.000002
    33  H   -0.000000   0.000000   0.000000   0.000000  -0.000000  -0.000000
    34  H   -0.000000   0.000000   0.000000   0.000000  -0.000000   0.000000
    35  H    0.000000  -0.000000  -0.000000   0.000000  -0.000000  -0.000000
    36  H   -0.000000   0.000000   0.000000   0.000000  -0.000000   0.000000
    37  H    0.000014  -0.000000   0.000000  -0.000000  -0.000000   0.000001
    38  H   -0.000124   0.003364  -0.000112  -0.035902   0.365784  -0.033105
    39  H    0.000000   0.000000  -0.000000   0.000003   0.000188  -0.001293
    40  C   -0.098513   0.002010  -0.000078  -0.000069  -0.000051  -0.000531
    41  H   -0.010381  -0.000013   0.000003  -0.000005  -0.000000   0.000011
    42  H    0.003987  -0.000078  -0.000009   0.000001   0.000000   0.000010
    43  C    0.000694   0.000007  -0.000001  -0.000375   0.005619  -0.079923
    44  H   -0.001117   0.000063   0.000005  -0.000139  -0.005446  -0.019278
    45  H   -0.000017   0.000000   0.000000  -0.000002  -0.000048   0.001435
    46  H    0.000011  -0.000000  -0.000000  -0.000000   0.000062   0.001734
    47  H   -0.000012   0.000000   0.000000   0.000017  -0.000530  -0.013945
    48  H   -0.056689   0.004771   0.000238  -0.000065  -0.000072  -0.000416
              13         14         15         16         17         18
     1  C    0.000000  -0.000001  -0.000014   0.000000  -0.000000  -0.000000
     2  C    0.000161   0.000045   0.002021  -0.000008   0.000000   0.000000
     3  C    0.000242   0.000660  -0.025442   0.000017   0.000010  -0.000000
     4  C   -0.101011   0.065650  -0.122555  -0.005386   0.000016   0.000008
     5  C   -0.020108  -0.001717   0.010290  -0.000006  -0.000001  -0.000001
     6  C   -0.069489   0.004707  -0.001985   0.000004   0.000000   0.000002
     7  C    0.019620  -0.000061   0.000001  -0.000000   0.000000  -0.000000
     8  N    0.000776   0.000002   0.000000   0.000000  -0.000000  -0.000000
     9  C   -0.000014  -0.000000   0.000000   0.000000  -0.000000   0.000000
    10  C    0.010907   0.000175   0.000002   0.000000   0.000000   0.000000
    11  C   -0.064974  -0.003354  -0.000015  -0.000001  -0.000000  -0.000004
    12  C    0.356753  -0.043637   0.008963   0.000330  -0.000002   0.000088
    13  C    6.532360   0.335056   0.124458   0.000672   0.000882   0.007019
    14  C    0.335056   6.553261   0.334975  -0.062487  -0.011831  -0.013731
    15  C    0.124458   0.334975   7.443742   0.294707  -0.024555  -0.041605
    16  C    0.000672  -0.062487   0.294707   5.113429   0.573478  -0.031934
    17  C    0.000882  -0.011831  -0.024555   0.573478   4.838006   0.234001
    18  N    0.007019  -0.013731  -0.041605  -0.031934   0.234001   7.227102
    19  C   -0.000082   0.005876  -0.000288   0.004399  -0.032733   0.202749
    20  C   -0.025142   0.387339  -0.138718  -0.027256  -0.066012   0.259130
    21  C   -0.000011   0.000053   0.000062  -0.000001   0.000000  -0.000000
    22  C    0.000004   0.000013  -0.000059  -0.000000   0.000000   0.000000
    23  H   -0.000000   0.000000   0.000001   0.000001  -0.000000  -0.000000
    24  H    0.000000   0.000000   0.000001  -0.000000   0.000000   0.000000
    25  H   -0.000000  -0.000000  -0.000000   0.000000   0.000000   0.000000
    26  H   -0.000394   0.000468  -0.005246   0.000775   0.000000  -0.000000
    27  H   -0.000395  -0.000000   0.000001   0.000000   0.000000   0.000000
    28  H    0.000000   0.000000  -0.000000  -0.000000   0.000000   0.000000
    29  H    0.000000   0.000000  -0.000000   0.000000   0.000000   0.000000
    30  H   -0.000011  -0.000000   0.000000  -0.000000   0.000000  -0.000000
    31  H   -0.000384  -0.000003  -0.000000  -0.000000  -0.000000  -0.000000
    32  H   -0.000115   0.005923  -0.027996   0.350495  -0.017032   0.004426
    33  H   -0.000038  -0.001275   0.006859  -0.020310   0.372272  -0.054393
    34  H    0.000004  -0.000460   0.000011   0.000609   0.001614  -0.038456
    35  H    0.000000   0.000195   0.000013  -0.000155   0.000154  -0.048347
    36  H    0.000001   0.000487  -0.000021  -0.000234   0.002380  -0.038574
    37  H   -0.000000  -0.000000  -0.000000  -0.000000  -0.000000   0.000000
    38  H   -0.006903  -0.000082   0.000009   0.000000   0.000000   0.000002
    39  H   -0.002457  -0.010380   0.006879  -0.000031   0.002630  -0.047654
    40  C    0.000046  -0.000001   0.000001   0.000000   0.000000   0.000000
    41  H   -0.000002  -0.000000   0.000000   0.000000  -0.000000   0.000000
    42  H   -0.000000   0.000000  -0.000000  -0.000000   0.000000  -0.000000
    43  C   -1.039502  -0.829267  -1.992400   0.005194   0.004339  -0.001907
    44  H    0.172252  -0.120395   0.051511   0.007649   0.000033   0.000053
    45  H   -0.035002  -0.221599  -0.106107  -0.039839  -0.008485   0.000266
    46  H    0.089302   0.059264   0.683959  -0.058074   0.005183   0.000861
    47  H   -0.258187  -0.181953  -0.345701   0.038128  -0.001206  -0.001647
    48  H    0.000036   0.000000  -0.000001  -0.000000   0.000000  -0.000000
              19         20         21         22         23         24
     1  C    0.000000   0.000000   0.004914  -0.038472   0.373319   0.372818
     2  C    0.000000  -0.000000  -0.027447   0.520265  -0.036951  -0.030510
     3  C    0.000000   0.000065  -0.063567  -0.055382  -0.003254  -0.003159
     4  C   -0.000000  -0.002570  -0.060521  -0.051475   0.000628  -0.000267
     5  C    0.000000   0.000040   0.453076  -0.040672  -0.000027   0.000012
     6  C   -0.000000  -0.000060  -0.050981   0.009345  -0.000000   0.000000
     7  C    0.000000  -0.000003  -0.022634  -0.000432   0.000000  -0.000000
     8  N    0.000000   0.000000   0.000797   0.000002   0.000000  -0.000000
     9  C    0.000000   0.000000   0.000031   0.000000   0.000000  -0.000000
    10  C   -0.000000  -0.000004  -0.000022   0.000000  -0.000000   0.000000
    11  C    0.000000   0.000126   0.000016  -0.000000  -0.000000  -0.000000
    12  C   -0.000000   0.006036   0.007828  -0.000164   0.000000  -0.000000
    13  C   -0.000082  -0.025142  -0.000011   0.000004  -0.000000   0.000000
    14  C    0.005876   0.387339   0.000053   0.000013   0.000000   0.000000
    15  C   -0.000288  -0.138718   0.000062  -0.000059   0.000001   0.000001
    16  C    0.004399  -0.027256  -0.000001  -0.000000   0.000001  -0.000000
    17  C   -0.032733  -0.066012   0.000000   0.000000  -0.000000   0.000000
    18  N    0.202749   0.259130  -0.000000   0.000000  -0.000000   0.000000
    19  C    4.955621  -0.030084   0.000000  -0.000000   0.000000  -0.000000
    20  C   -0.030084   4.955853   0.000000  -0.000000   0.000000  -0.000000
    21  C    0.000000   0.000000   5.042242   0.497010  -0.000204  -0.000184
    22  C   -0.000000  -0.000000   0.497010   5.020378   0.002771  -0.002021
    23  H    0.000000   0.000000  -0.000204   0.002771   0.559113  -0.028116
    24  H   -0.000000  -0.000000  -0.000184  -0.002021  -0.028116   0.536912
    25  H   -0.000000  -0.000000   0.000456  -0.002973  -0.027593  -0.026435
    26  H   -0.000000   0.000012   0.000687   0.004283   0.003751   0.000517
    27  H   -0.000000  -0.000000  -0.014479   0.000251  -0.000000   0.000000
    28  H    0.000000   0.000000   0.000015   0.000000   0.000000  -0.000000
    29  H   -0.000000  -0.000000  -0.000000  -0.000000  -0.000000   0.000000
    30  H   -0.000000  -0.000000  -0.000006   0.000000  -0.000000   0.000000
    31  H    0.000000   0.000000  -0.000000   0.000000  -0.000000   0.000000
    32  H   -0.000093   0.000606  -0.000000   0.000000  -0.000000   0.000000
    33  H   -0.003926   0.004370  -0.000000   0.000000   0.000000  -0.000000
    34  H    0.383581   0.001705   0.000000  -0.000000   0.000000  -0.000000
    35  H    0.387490  -0.001192  -0.000000   0.000000  -0.000000   0.000000
    36  H    0.385590  -0.000420   0.000000  -0.000000  -0.000000  -0.000000
    37  H   -0.000000  -0.000000  -0.030931   0.350677   0.000060   0.000438
    38  H   -0.000000   0.000035   0.000001  -0.000000   0.000000  -0.000000
    39  H   -0.003660   0.348159  -0.000000   0.000000  -0.000000  -0.000000
    40  C    0.000000   0.000000   0.271640  -0.040430   0.000002   0.000003
    41  H    0.000000   0.000000  -0.029980  -0.002400  -0.000000   0.000000
    42  H   -0.000000  -0.000000  -0.024457  -0.002787   0.000000  -0.000001
    43  C    0.000011   0.064330   0.020128   0.000036   0.000023   0.000006
    44  H   -0.000002  -0.011153  -0.000093  -0.000001   0.000000  -0.000000
    45  H    0.000016   0.033122   0.000137  -0.000070   0.000010  -0.000000
    46  H   -0.000001  -0.018765   0.000009   0.000037  -0.000054  -0.000004
    47  H    0.000021   0.047253  -0.000132  -0.000057   0.000001  -0.000001
    48  H    0.000000   0.000000  -0.046243   0.001128  -0.000000  -0.000000
              25         26         27         28         29         30
     1  C    0.375331  -0.004930   0.000000   0.000000   0.000000  -0.000000
     2  C   -0.034349  -0.020195  -0.000006   0.000000   0.000000  -0.000000
     3  C    0.003113   0.341147   0.000005  -0.000000  -0.000000   0.000000
     4  C   -0.000204  -0.045364  -0.000600  -0.000000  -0.000000  -0.000000
     5  C   -0.000025   0.002718  -0.000816   0.000013   0.000004  -0.000068
     6  C   -0.000000  -0.000164  -0.054597   0.000658  -0.000220  -0.000579
     7  C    0.000000   0.000001   0.370844  -0.004638   0.004460  -0.000939
     8  N    0.000000  -0.000000  -0.029424  -0.038995  -0.038545  -0.057089
     9  C    0.000000   0.000000  -0.004023   0.377744   0.379261   0.375189
    10  C    0.000000  -0.000000   0.002638   0.004796  -0.002572  -0.001798
    11  C   -0.000000  -0.000000   0.000966  -0.000277   0.000348   0.000695
    12  C   -0.000000  -0.000004   0.002346  -0.000034  -0.000032   0.000259
    13  C   -0.000000  -0.000394  -0.000395   0.000000   0.000000  -0.000011
    14  C   -0.000000   0.000468  -0.000000   0.000000   0.000000  -0.000000
    15  C   -0.000000  -0.005246   0.000001  -0.000000  -0.000000   0.000000
    16  C    0.000000   0.000775   0.000000  -0.000000   0.000000  -0.000000
    17  C    0.000000   0.000000   0.000000   0.000000   0.000000   0.000000
    18  N    0.000000  -0.000000   0.000000   0.000000   0.000000  -0.000000
    19  C   -0.000000  -0.000000  -0.000000   0.000000  -0.000000  -0.000000
    20  C   -0.000000   0.000012  -0.000000   0.000000  -0.000000  -0.000000
    21  C    0.000456   0.000687  -0.014479   0.000015  -0.000000  -0.000006
    22  C   -0.002973   0.004283   0.000251   0.000000  -0.000000   0.000000
    23  H   -0.027593   0.003751  -0.000000   0.000000  -0.000000  -0.000000
    24  H   -0.026435   0.000517   0.000000  -0.000000   0.000000   0.000000
    25  H    0.540994   0.000044  -0.000000   0.000000  -0.000000  -0.000000
    26  H    0.000044   0.559752  -0.000000  -0.000000  -0.000000  -0.000000
    27  H   -0.000000  -0.000000   0.604475   0.002610   0.000334   0.000943
    28  H    0.000000  -0.000000   0.002610   0.546616  -0.022817  -0.037588
    29  H   -0.000000  -0.000000   0.000334  -0.022817   0.534812  -0.036204
    30  H   -0.000000  -0.000000   0.000943  -0.037588  -0.036204   0.592131
    31  H   -0.000000  -0.000000  -0.000124   0.000142   0.002661   0.000319
    32  H   -0.000000   0.000571   0.000000  -0.000000  -0.000000   0.000000
    33  H    0.000000   0.000000  -0.000000   0.000000   0.000000  -0.000000
    34  H    0.000000   0.000000  -0.000000   0.000000   0.000000  -0.000000
    35  H    0.000000   0.000000   0.000000  -0.000000  -0.000000   0.000000
    36  H    0.000000   0.000000  -0.000000  -0.000000   0.000000  -0.000000
    37  H    0.003391  -0.000171   0.000018   0.000000  -0.000000   0.000000
    38  H    0.000000   0.000000   0.000014   0.000004   0.000006  -0.000035
    39  H    0.000000   0.000000   0.000000   0.000000   0.000000  -0.000000
    40  C    0.000004   0.000011  -0.033864  -0.000298  -0.000001   0.000070
    41  H   -0.000001   0.000000   0.018782  -0.000060  -0.000000   0.000095
    42  H    0.000003  -0.000000   0.002143   0.000004   0.000000   0.000000
    43  C    0.000003  -0.013226   0.000053   0.000000  -0.000000   0.000001
    44  H    0.000000  -0.000183  -0.000056   0.000000   0.000000  -0.000004
    45  H   -0.000000   0.005230  -0.000002   0.000000   0.000000  -0.000000
    46  H    0.000001   0.007408   0.000002  -0.000000  -0.000000   0.000000
    47  H    0.000000   0.000625  -0.000010   0.000000   0.000000  -0.000000
    48  H    0.000000  -0.000000  -0.028520   0.000520  -0.000025  -0.000243
              31         32         33         34         35         36
     1  C    0.000000  -0.000001   0.000000  -0.000000  -0.000000   0.000000
     2  C    0.000000   0.000008  -0.000000   0.000000  -0.000000   0.000000
     3  C    0.000000  -0.000336  -0.000000   0.000000  -0.000000   0.000000
     4  C   -0.000000   0.000170   0.000001  -0.000000   0.000000  -0.000000
     5  C    0.000006   0.000006  -0.000000   0.000000  -0.000000   0.000000
     6  C    0.000729  -0.000000   0.000000  -0.000000   0.000000  -0.000000
     7  C    0.003258   0.000000  -0.000000  -0.000000   0.000000  -0.000000
     8  N   -0.041890  -0.000000   0.000000   0.000000  -0.000000   0.000000
     9  C   -0.002571  -0.000000   0.000000   0.000000  -0.000000   0.000000
    10  C    0.362033  -0.000000   0.000000   0.000000   0.000000   0.000000
    11  C   -0.028113   0.000000  -0.000000  -0.000000  -0.000000  -0.000000
    12  C    0.002782  -0.000002  -0.000000   0.000000  -0.000000   0.000000
    13  C   -0.000384  -0.000115  -0.000038   0.000004   0.000000   0.000001
    14  C   -0.000003   0.005923  -0.001275  -0.000460   0.000195   0.000487
    15  C   -0.000000  -0.027996   0.006859   0.000011   0.000013  -0.000021
    16  C   -0.000000   0.350495  -0.020310   0.000609  -0.000155  -0.000234
    17  C   -0.000000  -0.017032   0.372272   0.001614   0.000154   0.002380
    18  N   -0.000000   0.004426  -0.054393  -0.038456  -0.048347  -0.038574
    19  C    0.000000  -0.000093  -0.003926   0.383581   0.387490   0.385590
    20  C    0.000000   0.000606   0.004370   0.001705  -0.001192  -0.000420
    21  C   -0.000000  -0.000000  -0.000000   0.000000  -0.000000   0.000000
    22  C    0.000000   0.000000   0.000000  -0.000000   0.000000  -0.000000
    23  H   -0.000000  -0.000000   0.000000   0.000000  -0.000000  -0.000000
    24  H    0.000000   0.000000  -0.000000  -0.000000   0.000000  -0.000000
    25  H   -0.000000  -0.000000   0.000000   0.000000   0.000000   0.000000
    26  H   -0.000000   0.000571   0.000000   0.000000   0.000000   0.000000
    27  H   -0.000124   0.000000  -0.000000  -0.000000   0.000000  -0.000000
    28  H    0.000142  -0.000000   0.000000   0.000000  -0.000000  -0.000000
    29  H    0.002661  -0.000000   0.000000   0.000000  -0.000000   0.000000
    30  H    0.000319   0.000000  -0.000000  -0.000000   0.000000  -0.000000
    31  H    0.531773   0.000000  -0.000000  -0.000000   0.000000  -0.000000
    32  H    0.000000   0.517027  -0.003825   0.000006   0.000001   0.000002
    33  H   -0.000000  -0.003825   0.508959   0.002004   0.000234   0.000173
    34  H   -0.000000   0.000006   0.002004   0.510962  -0.031059  -0.023092
    35  H    0.000000   0.000001   0.000234  -0.031059   0.520240  -0.030487
    36  H   -0.000000   0.000002   0.000173  -0.023092  -0.030487   0.515465
    37  H   -0.000000   0.000000   0.000000  -0.000000   0.000000  -0.000000
    38  H   -0.003023  -0.000000  -0.000000   0.000000   0.000000  -0.000000
    39  H   -0.000000   0.000012  -0.000153   0.000159   0.000458   0.001568
    40  C    0.000002  -0.000000  -0.000000  -0.000000   0.000000  -0.000000
    41  H    0.000000   0.000000  -0.000000  -0.000000   0.000000  -0.000000
    42  H   -0.000000   0.000000   0.000000   0.000000   0.000000  -0.000000
    43  C    0.000003  -0.007612   0.000100  -0.000006   0.000011  -0.000007
    44  H   -0.000001  -0.000028   0.000001  -0.000000   0.000001   0.000000
    45  H   -0.000000  -0.005034   0.000237   0.000005  -0.000019   0.000005
    46  H    0.000000   0.006858  -0.000274  -0.000001   0.000002  -0.000001
    47  H   -0.000000  -0.001832   0.000084   0.000001  -0.000003   0.000006
    48  H    0.000003  -0.000000   0.000000   0.000000  -0.000000   0.000000
              37         38         39         40         41         42
     1  C   -0.005578  -0.000000  -0.000000  -0.000189   0.000004  -0.000005
     2  C   -0.033748  -0.000000  -0.000000   0.004573  -0.000139   0.000361
     3  C    0.005548  -0.000000  -0.000000   0.001140  -0.000001   0.000024
     4  C    0.000632  -0.000003   0.000086   0.009498  -0.000313  -0.000269
     5  C    0.004601  -0.000052  -0.000003  -0.023135  -0.003879   0.002181
     6  C   -0.000198   0.002965  -0.000009  -0.028423   0.003321   0.000909
     7  C    0.000014  -0.000124   0.000000  -0.098513  -0.010381   0.003987
     8  N   -0.000000   0.003364   0.000000   0.002010  -0.000013  -0.000078
     9  C    0.000000  -0.000112  -0.000000  -0.000078   0.000003  -0.000009
    10  C   -0.000000  -0.035902   0.000003  -0.000069  -0.000005   0.000001
    11  C   -0.000000   0.365784   0.000188  -0.000051  -0.000000   0.000000
    12  C    0.000001  -0.033105  -0.001293  -0.000531   0.000011   0.000010
    13  C   -0.000000  -0.006903  -0.002457   0.000046  -0.000002  -0.000000
    14  C   -0.000000  -0.000082  -0.010380  -0.000001  -0.000000   0.000000
    15  C   -0.000000   0.000009   0.006879   0.000001   0.000000  -0.000000
    16  C   -0.000000   0.000000  -0.000031   0.000000   0.000000  -0.000000
    17  C   -0.000000   0.000000   0.002630   0.000000  -0.000000   0.000000
    18  N    0.000000   0.000002  -0.047654   0.000000   0.000000  -0.000000
    19  C   -0.000000  -0.000000  -0.003660   0.000000   0.000000  -0.000000
    20  C   -0.000000   0.000035   0.348159   0.000000   0.000000  -0.000000
    21  C   -0.030931   0.000001  -0.000000   0.271640  -0.029980  -0.024457
    22  C    0.350677  -0.000000   0.000000  -0.040430  -0.002400  -0.002787
    23  H    0.000060   0.000000  -0.000000   0.000002  -0.000000   0.000000
    24  H    0.000438  -0.000000  -0.000000   0.000003   0.000000  -0.000001
    25  H    0.003391   0.000000   0.000000   0.000004  -0.000001   0.000003
    26  H   -0.000171   0.000000   0.000000   0.000011   0.000000  -0.000000
    27  H    0.000018   0.000014   0.000000  -0.033864   0.018782   0.002143
    28  H    0.000000   0.000004   0.000000  -0.000298  -0.000060   0.000004
    29  H   -0.000000   0.000006   0.000000  -0.000001  -0.000000   0.000000
    30  H    0.000000  -0.000035  -0.000000   0.000070   0.000095   0.000000
    31  H   -0.000000  -0.003023  -0.000000   0.000002   0.000000  -0.000000
    32  H    0.000000  -0.000000   0.000012  -0.000000   0.000000   0.000000
    33  H    0.000000  -0.000000  -0.000153  -0.000000  -0.000000   0.000000
    34  H   -0.000000   0.000000   0.000159  -0.000000  -0.000000   0.000000
    35  H    0.000000   0.000000   0.000458   0.000000   0.000000   0.000000
    36  H   -0.000000  -0.000000   0.001568  -0.000000  -0.000000  -0.000000
    37  H    0.554536   0.000000   0.000000  -0.004207   0.000319   0.003921
    38  H    0.000000   0.556176   0.000342  -0.000000  -0.000000   0.000000
    39  H    0.000000   0.000342   0.508551  -0.000000  -0.000000   0.000000
    40  C   -0.004207  -0.000000  -0.000000   5.352350   0.367757   0.347750
    41  H    0.000319  -0.000000  -0.000000   0.367757   0.543375  -0.023554
    42  H    0.003921   0.000000   0.000000   0.347750  -0.023554   0.539309
    43  C    0.000002  -0.000134  -0.001038  -0.000335   0.000011   0.000002
    44  H    0.000000  -0.000189  -0.000366  -0.000003  -0.000002   0.000000
[...]
    23  H   -0.000017  -0.000013   0.000000  -0.000000  -0.000000   0.000000
    24  H    0.000041   0.000003  -0.000000  -0.000000   0.000000  -0.000000
    25  H   -0.000143   0.000001   0.000000  -0.000000  -0.000000   0.000000
    26  H    0.000001   0.000597   0.000000  -0.000000   0.000000   0.000000
    27  H    0.000000   0.000000  -0.000584  -0.000035  -0.000000   0.000022
    28  H   -0.000000  -0.000000  -0.000035   0.000134   0.000005  -0.000141
    29  H   -0.000000   0.000000  -0.000000   0.000005  -0.000142   0.000052
    30  H    0.000000   0.000000   0.000022  -0.000141   0.000052   0.000548
    31  H   -0.000000  -0.000000  -0.000003   0.000005   0.000013  -0.000111
    32  H   -0.000000  -0.000101  -0.000000   0.000000   0.000000  -0.000000
    33  H    0.000000   0.000000   0.000000  -0.000000  -0.000000   0.000000
    34  H   -0.000000  -0.000000  -0.000000   0.000000   0.000000  -0.000000
    35  H    0.000000   0.000000   0.000000  -0.000000  -0.000000   0.000000
    36  H   -0.000000  -0.000000   0.000000   0.000000  -0.000000  -0.000000
    37  H   -0.000005   0.000000  -0.000001   0.000000   0.000000  -0.000000
    38  H   -0.000000  -0.000000  -0.000000   0.000000   0.000000  -0.000002
    39  H   -0.000000  -0.000000  -0.000000   0.000000   0.000000  -0.000000
    40  C    0.000000   0.000000   0.000636  -0.000007   0.000000   0.000005
    41  H    0.000000  -0.000000  -0.000118   0.000001   0.000000  -0.000003
    42  H   -0.000000  -0.000000  -0.000046   0.000000   0.000000  -0.000000
    43  C   -0.000000   0.001240  -0.000027   0.000000   0.000000  -0.000000
    44  H    0.000000   0.000055   0.000004  -0.000000  -0.000000   0.000000
    45  H   -0.000000  -0.000137   0.000000   0.000000  -0.000000   0.000000
    46  H    0.000000  -0.002250  -0.000000   0.000000   0.000000  -0.000000
    47  H    0.000000   0.000364   0.000002  -0.000000  -0.000000   0.000000
    48  H   -0.000000  -0.000000   0.000164   0.000014   0.000000  -0.000004
              31         32         33         34         35         36
     1  C   -0.000000  -0.000001   0.000000  -0.000000   0.000000  -0.000000
     2  C    0.000000   0.000008  -0.000000   0.000000  -0.000000   0.000000
     3  C   -0.000000  -0.000042  -0.000000   0.000000  -0.000000   0.000000
     4  C   -0.000000  -0.000061   0.000000  -0.000000   0.000000  -0.000000
     5  C    0.000001   0.000002  -0.000000   0.000000  -0.000000   0.000000
     6  C    0.000038  -0.000000   0.000000  -0.000000   0.000000  -0.000000
     7  C   -0.000085  -0.000000   0.000000  -0.000000   0.000000  -0.000000
     8  N   -0.000211   0.000000  -0.000000   0.000000  -0.000000  -0.000000
     9  C    0.000182   0.000000  -0.000000   0.000000  -0.000000   0.000000
    10  C   -0.000434  -0.000000   0.000000  -0.000000   0.000000  -0.000000
    11  C    0.000045   0.000000  -0.000000   0.000000  -0.000000   0.000000
    12  C   -0.000024   0.000001  -0.000000   0.000000  -0.000000   0.000000
    13  C   -0.000041   0.000260  -0.000015   0.000004  -0.000010   0.000004
    14  C   -0.000000   0.003400  -0.000476   0.000069  -0.000029   0.000041
    15  C    0.000000   0.005988   0.000287  -0.000039   0.000003  -0.000005
    16  C   -0.000000  -0.013362  -0.001462   0.000064  -0.000005  -0.000001
    17  C    0.000000   0.000756   0.001793   0.000270   0.001266   0.000040
    18  N   -0.000000   0.000300  -0.001266  -0.000636  -0.001633   0.000019
    19  C    0.000000  -0.000009   0.000400  -0.001452   0.000420   0.000240
    20  C   -0.000000  -0.000402   0.000267  -0.000026  -0.000457  -0.000023
    21  C    0.000000   0.000000  -0.000000   0.000000  -0.000000   0.000000
    22  C    0.000000  -0.000000   0.000000  -0.000000   0.000000  -0.000000
    23  H    0.000000   0.000000  -0.000000   0.000000  -0.000000   0.000000
    24  H   -0.000000  -0.000000   0.000000  -0.000000   0.000000   0.000000
    25  H   -0.000000  -0.000000   0.000000  -0.000000   0.000000  -0.000000
    26  H   -0.000000  -0.000101   0.000000  -0.000000   0.000000  -0.000000
    27  H   -0.000003  -0.000000   0.000000  -0.000000   0.000000   0.000000
    28  H    0.000005   0.000000  -0.000000   0.000000  -0.000000   0.000000
    29  H    0.000013   0.000000  -0.000000   0.000000  -0.000000  -0.000000
    30  H   -0.000111  -0.000000   0.000000  -0.000000   0.000000  -0.000000
    31  H    0.001296   0.000000  -0.000000   0.000000  -0.000000   0.000000
    32  H    0.000000   0.013551  -0.000723   0.000010  -0.000003   0.000000
    33  H   -0.000000  -0.000723  -0.005234  -0.000582   0.000153  -0.000014
    34  H    0.000000   0.000010  -0.000582   0.005900  -0.001586   0.000151
    35  H   -0.000000  -0.000003   0.000153  -0.001586   0.004093   0.000050
    36  H    0.000000   0.000000  -0.000014   0.000151   0.000050  -0.000698
    37  H    0.000000   0.000000  -0.000000   0.000000  -0.000000   0.000000
    38  H    0.000064   0.000000  -0.000000   0.000000  -0.000000   0.000000
    39  H    0.000000   0.000004  -0.000011   0.000076  -0.000201   0.000085
    40  C   -0.000000  -0.000000   0.000000  -0.000000   0.000000  -0.000000
    41  H    0.000000   0.000000  -0.000000   0.000000  -0.000000   0.000000
    42  H    0.000000   0.000000  -0.000000   0.000000  -0.000000   0.000000
    43  C   -0.000000  -0.005195   0.000138  -0.000007   0.000013  -0.000002
    44  H   -0.000001  -0.000039   0.000002  -0.000000   0.000001  -0.000000
    45  H    0.000000   0.000669  -0.000024   0.000000  -0.000000  -0.000000
    46  H    0.000000   0.002669  -0.000028   0.000000  -0.000000   0.000000
    47  H   -0.000000  -0.000803   0.000024  -0.000002   0.000001  -0.000001
    48  H    0.000000   0.000000  -0.000000   0.000000  -0.000000  -0.000000
              37         38         39         40         41         42
     1  C    0.000011  -0.000000  -0.000000   0.000000   0.000000   0.000000
     2  C   -0.000031   0.000000   0.000000  -0.000047  -0.000000  -0.000000
     3  C   -0.000060   0.000000   0.000000   0.000069  -0.000001  -0.000002
     4  C    0.000003  -0.000004  -0.000014   0.000266  -0.000004  -0.000001
     5  C   -0.000065   0.000006   0.000002   0.001527  -0.000045  -0.000074
     6  C   -0.000002  -0.000006  -0.000004   0.000439  -0.000010  -0.000005
     7  C    0.000000  -0.000025  -0.000000  -0.000189   0.000001   0.000019
     8  N    0.000000  -0.000006   0.000000  -0.000005   0.000002  -0.000000
     9  C    0.000000   0.000003   0.000000  -0.000009   0.000002   0.000000
    10  C   -0.000000  -0.000204  -0.000002   0.000001  -0.000000  -0.000000
    11  C    0.000000   0.000545   0.000053  -0.000007   0.000000   0.000000
    12  C    0.000000   0.000297   0.000172  -0.000003   0.000000  -0.000000
    13  C    0.000000  -0.000589   0.003546  -0.000003   0.000000   0.000000
    14  C    0.000000  -0.000082  -0.001545  -0.000000   0.000000   0.000000
    15  C    0.000000   0.000004   0.000518  -0.000001   0.000000   0.000000
    16  C   -0.000000  -0.000000  -0.000169   0.000000  -0.000000  -0.000000
    17  C    0.000000   0.000000   0.000024  -0.000000  -0.000000   0.000000
    18  N    0.000000  -0.000000  -0.000353  -0.000000   0.000000   0.000000
    19  C   -0.000000   0.000000   0.000182  -0.000000   0.000000   0.000000
    20  C   -0.000000   0.000004  -0.001411   0.000000  -0.000000  -0.000000
    21  C   -0.000066   0.000000   0.000000  -0.003627   0.000247   0.000099
    22  C    0.000283  -0.000000  -0.000000  -0.000403   0.000000   0.000067
    23  H    0.000001   0.000000   0.000000  -0.000000   0.000000   0.000000
    24  H   -0.000003  -0.000000  -0.000000   0.000000  -0.000000  -0.000000
    25  H   -0.000005  -0.000000  -0.000000   0.000000   0.000000  -0.000000
    26  H    0.000000  -0.000000  -0.000000   0.000000  -0.000000  -0.000000
    27  H   -0.000001  -0.000000  -0.000000   0.000636  -0.000118  -0.000046
    28  H    0.000000   0.000000   0.000000  -0.000007   0.000001   0.000000
    29  H    0.000000   0.000000   0.000000   0.000000   0.000000   0.000000
    30  H   -0.000000  -0.000002  -0.000000   0.000005  -0.000003  -0.000000
    31  H    0.000000   0.000064   0.000000  -0.000000   0.000000   0.000000
    32  H    0.000000   0.000000   0.000004  -0.000000   0.000000   0.000000
    33  H   -0.000000  -0.000000  -0.000011   0.000000  -0.000000  -0.000000
    34  H    0.000000   0.000000   0.000076  -0.000000   0.000000   0.000000
    35  H   -0.000000  -0.000000  -0.000201   0.000000  -0.000000  -0.000000
    36  H    0.000000   0.000000   0.000085  -0.000000   0.000000   0.000000
    37  H   -0.000298   0.000000   0.000000  -0.000015   0.000000   0.000007
    38  H    0.000000  -0.000760   0.000024  -0.000000   0.000000   0.000000
    39  H    0.000000   0.000024   0.007707  -0.000000   0.000000   0.000000
    40  C   -0.000015  -0.000000  -0.000000   0.003575  -0.000179  -0.000208
    41  H    0.000000   0.000000   0.000000  -0.000179  -0.000263   0.000052
    42  H    0.000007   0.000000   0.000000  -0.000208   0.000052  -0.000044
    43  C    0.000002  -0.000058  -0.002497  -0.000085   0.000001   0.000001
    44  H   -0.000000  -0.000043  -0.000272   0.000007  -0.000000  -0.000000
    45  H    0.000000   0.000001   0.000080  -0.000000   0.000000   0.000000
    46  H    0.000000   0.000000   0.000031  -0.000002   0.000000   0.000000
    47  H   -0.000000  -0.000010  -0.000405   0.000005  -0.000000  -0.000000
    48  H    0.000005   0.000000   0.000000  -0.000773   0.000167   0.000112
              43         44         45         46         47         48
     1  C   -0.000021   0.000000  -0.000003  -0.000024   0.000003  -0.000000
     2  C    0.001778  -0.000057   0.000127   0.001076  -0.000300   0.000001
     3  C   -0.002544   0.000412  -0.001180  -0.005044   0.002022  -0.000004
     4  C    0.040570   0.007647  -0.001106  -0.010903   0.022276  -0.000072
     5  C    0.004966  -0.003763   0.000735   0.001714  -0.004711  -0.000192
     6  C   -0.006753   0.003208  -0.000265  -0.000519   0.002987   0.000003
     7  C   -0.000242   0.000142  -0.000002  -0.000002   0.000034  -0.000105
     8  N    0.000003  -0.000003  -0.000000   0.000000   0.000000  -0.000005
     9  C    0.000000  -0.000000  -0.000000   0.000000  -0.000000   0.000009
    10  C    0.000003   0.000059  -0.000000  -0.000000   0.000007   0.000001
    11  C   -0.000747  -0.000978   0.000011   0.000014  -0.000420   0.000010
    12  C   -0.012975  -0.004846   0.000544   0.000335  -0.002681   0.000005
    13  C   -0.638452  -0.029207   0.014836   0.025989  -0.128840  -0.000003
    14  C   -0.439461  -0.004788   0.008533   0.046536  -0.112776  -0.000000
    15  C   -0.984022  -0.025015   0.079764   0.124871  -0.093479   0.000000
    16  C    0.092643   0.001241  -0.003073  -0.025158   0.013565  -0.000000
    17  C   -0.000248   0.000008  -0.000133   0.000291  -0.001022   0.000000
    18  N   -0.002283  -0.000071   0.000164   0.000107   0.000035  -0.000000
    19  C   -0.000006  -0.000000  -0.000001  -0.000001   0.000001   0.000000
    20  C    0.046461   0.002851  -0.002829  -0.001628   0.009016  -0.000000
    21  C    0.003264  -0.000228   0.000025   0.000149  -0.000283   0.000877
    22  C   -0.000040   0.000001  -0.000001  -0.000007  -0.000001   0.000069
    23  H   -0.000000   0.000000  -0.000001   0.000003  -0.000000  -0.000000
    24  H   -0.000000   0.000000   0.000000  -0.000001   0.000000   0.000000
    25  H   -0.000000   0.000000  -0.000000   0.000000   0.000000  -0.000000
    26  H    0.001240   0.000055  -0.000137  -0.002250   0.000364  -0.000000
    27  H   -0.000027   0.000004   0.000000  -0.000000   0.000002   0.000164
    28  H    0.000000  -0.000000   0.000000   0.000000  -0.000000   0.000014
    29  H    0.000000  -0.000000  -0.000000   0.000000  -0.000000   0.000000
    30  H   -0.000000   0.000000   0.000000  -0.000000   0.000000  -0.000004
    31  H   -0.000000  -0.000001   0.000000   0.000000  -0.000000   0.000000
    32  H   -0.005195  -0.000039   0.000669   0.002669  -0.000803   0.000000
    33  H    0.000138   0.000002  -0.000024  -0.000028   0.000024  -0.000000
    34  H   -0.000007  -0.000000   0.000000   0.000000  -0.000002   0.000000
    35  H    0.000013   0.000001  -0.000000  -0.000000   0.000001  -0.000000
    36  H   -0.000002  -0.000000  -0.000000   0.000000  -0.000001  -0.000000
    37  H    0.000002  -0.000000   0.000000   0.000000  -0.000000   0.000005
    38  H   -0.000058  -0.000043   0.000001   0.000000  -0.000010   0.000000
    39  H   -0.002497  -0.000272   0.000080   0.000031  -0.000405   0.000000
    40  C   -0.000085   0.000007  -0.000000  -0.000002   0.000005  -0.000773
    41  H    0.000001  -0.000000   0.000000   0.000000  -0.000000   0.000167
    42  H    0.000001  -0.000000   0.000000   0.000000  -0.000000   0.000112
    43  C    2.174348   0.047127  -0.079789  -0.175589   0.248369   0.000019
    44  H    0.047127  -0.003938   0.004185  -0.006118   0.013004  -0.000001
    45  H   -0.079789   0.004185  -0.059656   0.024734  -0.008529  -0.000000
    46  H   -0.175589  -0.006118   0.024734   0.076540  -0.037102   0.000000
    47  H    0.248369   0.013004  -0.008529  -0.037102   0.119807  -0.000002
    48  H    0.000019  -0.000001  -0.000000   0.000000  -0.000002  -0.000348
 Mulliken charges and spin densities:
               1          2
     1  C   -0.471171   0.000441
     2  C    0.093712  -0.004924
     3  C   -0.170595   0.012479
     4  C    0.274561  -0.001208
     5  C   -0.018066   0.011472
     6  C    0.177737  -0.001592
     7  C   -0.085224   0.010748
     8  N   -0.470547   0.005287
     9  C   -0.291803   0.000143
    10  C    0.043796  -0.004984
    11  C   -0.097606   0.017438
    12  C   -0.026482  -0.009276
    13  C   -0.026330   0.089112
    14  C   -0.251915   0.143634
    15  C   -0.135757   0.205233
    16  C   -0.144167  -0.058116
    17  C    0.126858   0.201635
    18  N   -0.617454   0.020406
    19  C   -0.254485  -0.002858
    20  C    0.213201  -0.018088
    21  C    0.072792  -0.005629
    22  C   -0.168804   0.010186
    23  H    0.156517  -0.000096
    24  H    0.179992  -0.000226
    25  H    0.168243  -0.000087
    26  H    0.161880  -0.000225
    27  H    0.160492  -0.000525
    28  H    0.171585   0.000020
    29  H    0.178529  -0.000048
    30  H    0.164863   0.000342
    31  H    0.172399   0.000733
    32  H    0.177796   0.006876
    33  H    0.188898  -0.006772
    34  H    0.192413   0.002212
    35  H    0.202463   0.002074
    36  H    0.187159  -0.000112
    37  H    0.150656  -0.000234
    38  H    0.151009  -0.000840
    39  H    0.199705   0.005619
    40  C   -0.512434   0.000967
    41  H    0.190757  -0.000150
    42  H    0.169263  -0.000024
    43  C   -0.691993   0.309901
    44  H    0.200652   0.000585
    45  H    0.208241  -0.022319
    46  H    0.153218   0.040682
    47  H    0.355384   0.040158
    48  H    0.190063  -0.000051
 Sum of Mulliken charges =   1.00000   1.00000
 Mulliken charges and spin densities with hydrogens summed into heavy atoms:
               1          2
     1  C    0.033581   0.000032
     2  C    0.093712  -0.004924
     3  C   -0.008715   0.012254
     4  C    0.274561  -0.001208
     5  C   -0.018066   0.011472
     6  C    0.177737  -0.001592
     7  C    0.075268   0.010222
     8  N   -0.470547   0.005287
     9  C    0.223174   0.000458
    10  C    0.216195  -0.004250
    11  C    0.053403   0.016598
    12  C   -0.026482  -0.009276
    13  C    0.174322   0.089696
    14  C   -0.251915   0.143634
    15  C    0.225702   0.223596
    16  C    0.033629  -0.051240
    17  C    0.315755   0.194864
    18  N   -0.617454   0.020406
    19  C    0.327550   0.001316
    20  C    0.412906  -0.012469
    21  C    0.072792  -0.005629
    22  C   -0.018148   0.009953
    40  C    0.037649   0.000742
    43  C   -0.336609   0.350059
 Electronic spatial extent (au):  <R**2>=           9035.3990
 Charge=              1.0000 electrons
 Dipole moment (field-independent basis, Debye):
    X=              5.1767    Y=             -1.3485    Z=              1.5055  Tot=              5.5573
 Quadrupole moment (field-independent basis, Debye-Ang):
   XX=            -54.6188   YY=            -98.2145   ZZ=           -147.0095
   XY=             -4.4534   XZ=             -2.3749   YZ=             -4.1217
 Traceless Quadrupole moment (field-independent basis, Debye-Ang):
   XX=             45.3288   YY=              1.7331   ZZ=            -47.0619
   XY=             -4.4534   XZ=             -2.3749   YZ=             -4.1217
 Octapole moment (field-independent basis, Debye-Ang**2):
  XXX=            201.0857  YYY=            -16.7435  ZZZ=              2.5124  XYY=            -21.6983
  XXY=            -76.1212  XXZ=             12.2743  XZZ=              4.9069  YZZ=              1.2274
  YYZ=             14.5334  XYZ=             10.9980
 Hexadecapole moment (field-independent basis, Debye-Ang**3):
 XXXX=          -4981.4464 YYYY=          -3822.4212 ZZZZ=           -197.1044 XXXY=           -195.0867
 XXXZ=            -30.4639 YYYX=             27.7010 YYYZ=            -51.5072 ZZZX=             -0.5219
 ZZZY=             -9.9409 XXYY=          -1552.6436 XXZZ=          -1309.2892 YYZZ=           -842.1679
 XXYZ=            -47.1744 YYXZ=            -34.6236 ZZXY=            -19.6466
 N-N= 2.003639981434D+03 E-N=-6.215221155800D+03  KE= 9.599147477654D+02
 Unable to Open any file for archive entry.
 1\1\GINC-N2\SP\UB3LYP TD-FC\6-31G\C22H24N2(1+,2)\HPCMGAC13\13-Jun-2025
 \0\\# td=(50-50,nstates=3) b3lyp/6-31g\\[No Title]\\1,2\C,0,5.75115188
 ,6.32319666,-1.93992686\C,0,4.77253519,5.13792292,-2.03155934\C,0,4.81
 796925,4.11613382,-1.07384486\C,0,3.92729602,3.03749849,-1.15737962\C,
 0,2.99135076,2.98063113,-2.19863433\C,0,2.0128885,1.79483453,-2.289531
 41\C,0,1.09788157,1.73450887,-3.2880637\N,0,0.29336437,0.51279153,-3.5
 5657392\C,0,-1.02555307,0.93093704,-4.05324541\C,0,0.08910807,-0.35264
 499,-2.36412359\C,0,0.96310687,-0.37725098,-1.32788353\C,0,2.05393542,
 0.68158039,-1.25194787\C,0,3.00703449,0.64654308,-0.28973704\C,0,4.090
 03464,0.60591212,0.80436622\C,0,5.07272833,1.59402168,0.85843085\C,0,6
 .03816364,1.52699042,1.86243993\C,0,5.99753021,0.4740185,2.7867683\N,0
 ,5.03958643,-0.46609884,2.71165029\C,0,5.02224705,-1.55986953,3.693522
 46\C,0,4.09694544,-0.4240004,1.75437828\C,0,2.94586773,4.00246224,-3.1
 5640481\C,0,3.83652337,5.08102316,-3.0727302\H,0,5.99925977,6.50220623
 ,-0.914517\H,0,6.64135406,6.09379713,-2.4875503\H,0,5.29284804,7.19690
 747,-2.3538127\H,0,5.53262846,4.15933574,-0.27878976\H,0,0.9574744,2.5
 9223293,-3.91199143\H,0,-0.90249619,1.52665369,-4.93363182\H,0,-1.6097
 737,0.0653945,-4.28699519\H,0,-1.52450771,1.50521318,-3.30084728\H,0,-
 0.7719825,-0.98644219,-2.32812645\H,0,6.80291086,2.27252321,1.92677228
 \H,0,6.73559895,0.41802574,3.55916705\H,0,6.02169545,-1.76663126,4.014
 80145\H,0,4.42863557,-1.2733185,4.53642274\H,0,4.60384446,-2.43585949,
 3.24390906\H,0,3.80191589,5.86113387,-3.80398493\H,0,0.88213591,-1.126
 61401,-0.56841164\H,0,3.34498725,-1.184076,1.71741691\C,0,1.9175394,3.
 94029581,-4.30079885\H,0,1.01551388,4.42898998,-3.99667073\H,0,2.31536
 998,4.43075503,-5.16458109\C,0,3.97703766,1.91473306,-0.10472646\H,0,2
 .99944556,1.49807062,0.01866605\H,0,4.31426869,2.31526977,0.82814615\H
 ,0,5.08560323,2.38915483,0.14255712\H,0,4.65203004,1.15086743,-0.42960
 011\H,0,1.70743362,2.91784951,-4.53597071\\Version=ES64L-G16RevC.02\St
 ate=2-A\HF=-960.6764746\S2=0.760736\S2-1=0.\S2A=0.750066\RMSD=7.230e-0
 9\PG=C01 [X(C22H24N2)]\\@
 The archive entry for this job was punched.


 ALL THINGS ARE POSSIBLE EXCEPT SKIING THROUGH A REVOLVING DOOR.
 Job cpu time:       0 days  0 hours 23 minutes 52.7 seconds.
 Elapsed time:       0 days  0 hours  3 minutes  1.8 seconds.
 File lengths (MBytes):  RWF=    561 Int=      0 D2E=      0 Chk=     17 Scr=      2
 Normal termination of Gaussian 16 at Fri Jun 13 20:34:05 2025.
