 Entering Gaussian System, Link 0=g16
 Input=M1782.gjf
 Output=M1782.log
 Initial command:
 /hpc/softwares/Gaussian/g16/l1.exe "/hpc/home/hpcmgac13/pbs.11122.admin1.x8z/Gau-186337.inp" -scrdir="/hpc/home/hpcmgac13/pbs.11122.admin1.x8z/"
 Default linda workers: n2
 Default is to use  16 SMP processors on each worker.
 Entering Link 1 = /hpc/softwares/Gaussian/g16/l1.exe PID=    186338.
  
 Copyright (c) 1988-2021, Gaussian, Inc.  All Rights Reserved.
  
 This is part of the Gaussian(R) 16 program.  It is based on
 the Gaussian(R) 09 system (copyright 2009, Gaussian, Inc.),
 the Gaussian(R) 03 system (copyright 2003, Gaussian, Inc.),
 the Gaussian(R) 98 system (copyright 1998, Gaussian, Inc.),
 the Gaussian(R) 94 system (copyright 1995, Gaussian, Inc.),
 the Gaussian 92(TM) system (copyright 1992, Gaussian, Inc.),
 the Gaussian 90(TM) system (copyright 1990, Gaussian, Inc.),
 the Gaussian 88(TM) system (copyright 1988, Gaussian, Inc.),
 the Gaussian 86(TM) system (copyright 1986, Carnegie Mellon
 University), and the Gaussian 82(TM) system (copyright 1983,
 Carnegie Mellon University). Gaussian is a federally registered
 trademark of Gaussian, Inc.
  
 This software contains proprietary and confidential information,
 including trade secrets, belonging to Gaussian, Inc.
  
 This software is provided under written license and may be
 used, copied, transmitted, or stored only in accord with that
 written license.
  
 The following legend is applicable only to US Government
 contracts under FAR:
  
                    RESTRICTED RIGHTS LEGEND
  
 Use, reproduction and disclosure by the US Government is
 subject to restrictions as set forth in subparagraphs (a)
 and (c) of the Commercial Computer Software - Restricted
 Rights clause in FAR 52.227-19.
  
 Gaussian, Inc.
 340 Quinnipiac St., Bldg. 40, Wallingford CT 06492
  
  
 ---------------------------------------------------------------
 Warning -- This program may not be used in any manner that
 competes with the business of Gaussian, Inc. or will provide
 assistance to any competitor of Gaussian, Inc.  The licensee
 of this program is prohibited from giving any competitor of
 Gaussian, Inc. access to this program.  By using this program,
 the user acknowledges that Gaussian, Inc. is engaged in the
 business of creating and licensing software in the field of
 computational chemistry and represents and warrants to the
 licensee that it is not a competitor of Gaussian, Inc. and that
 it will not use this program in any manner prohibited above.
 ---------------------------------------------------------------
  

 Cite this work as:
 Gaussian 16, Revision C.02,
 M. J. Frisch, G. W. Trucks, H. B. Schlegel, G. E. Scuseria, 
 M. A. Robb, J. R. Cheeseman, G. Scalmani, V. Barone, 
 G. A. Petersson, H. Nakatsuji, X. Li, M. Caricato, A. V. Marenich, 
 J. Bloino, B. G. Janesko, R. Gomperts, B. Mennucci, H. P. Hratchian, 
 J. V. Ortiz, A. F. Izmaylov, J. L. Sonnenberg, D. Williams-Young, 
 F. Ding, F. Lipparini, F. Egidi, J. Goings, B. Peng, A. Petrone, 
 T. Henderson, D. Ranasinghe, V. G. Zakrzewski, J. Gao, N. Rega, 
 G. Zheng, W. Liang, M. Hada, M. Ehara, K. Toyota, R. Fukuda, 
 J. Hasegawa, M. Ishida, T. Nakajima, Y. Honda, O. Kitao, H. Nakai, 
 T. Vreven, K. Throssell, J. A. Montgomery, Jr., J. E. Peralta, 
 F. Ogliaro, M. J. Bearpark, J. J. Heyd, E. N. Brothers, K. N. Kudin, 
 V. N. Staroverov, T. A. Keith, R. Kobayashi, J. Normand, 
 K. Raghavachari, A. P. Rendell, J. C. Burant, S. S. Iyengar, 
 J. Tomasi, M. Cossi, J. M. Millam, M. Klene, C. Adamo, R. Cammi, 
 J. W. Ochterski, R. L. Martin, K. Morokuma, O. Farkas, 
 J. B. Foresman, and D. J. Fox, Gaussian, Inc., Wallingford CT, 2019.
 
 ******************************************
 Gaussian 16:  ES64L-G16RevC.02  7-Dec-2021
                13-Jun-2025 
 ******************************************
 SetLPE:    new flags="-opt 'Tsnet.Node.lindarsharg: ssh'  -nodelist 'n2.head.cm.mguif.local' -env GAUSS_MDEF=4294967296 -env GAUSS_EXEDIR="/hpc/softwares/Gaussian/g16/bsd:/hpc/softwares/Gaussian/g16""
 Will use up to    1 processors via Linda.
 ----------------------------------
 # td=(50-50,nstates=3) b3lyp/6-31g
 ----------------------------------
 1/38=1,172=1/1;
 2/12=2,17=6,18=5,40=1/2;
 3/5=1,6=6,11=9,25=1,30=1,74=-5/1,2,3,8;
 4//1;
 5/5=2,38=5/2;
 8/6=1,10=2,108=3/1;
 9/41=3,42=1,48=2,70=2/14;
 6/7=2,8=2,9=2,10=2/1;
 99/5=1,9=1/99;
 ----------
 [No Title]
 ----------
 Symbolic Z-matrix:
 Charge =  0 Multiplicity = 1
 C                     2.80601   3.95506  -0.32947 
 C                     1.64177   3.00317  -0.16098 
 C                     0.36841   3.33295  -0.65422 
 C                    -0.72256   2.46644  -0.52544 
 C                    -2.06709   2.86879  -1.09547 
 C                    -0.54989   1.21218   0.12112 
 C                    -1.7217    0.29485   0.2956 
 C                    -2.60024   0.49624   1.53144 
 C                    -3.93808  -1.40849   0.57962 
 C                    -1.99527  -0.66642  -0.61446 
 C                     0.72579   0.87531   0.62602 
 C                     0.97365  -0.44365   1.35759 
 C                     1.99331  -1.34026   0.71303 
 C                     3.19341  -1.77388   1.20463 
 C                     3.9258   -2.6478    0.32576 
 C                     3.29306  -2.89502  -0.85534 
 S                     1.71036  -2.03474  -0.94949 
 C                     1.7988    1.76941   0.47489 
 H                     3.09533   4.04979  -1.38452 
 H                     2.55668   4.962     0.0274 
 H                     3.68523   3.61058   0.22415 
 H                     0.22412   4.28765  -1.15491 
 H                    -2.01456   3.86355  -1.54898 
 H                    -2.40664   2.16298  -1.86211 
 H                    -2.84705   2.89331  -0.32475 
 H                    -2.97353   1.53617   1.5662 
 H                    -4.76849  -2.1058    0.60164 
 H                    -1.36415  -0.81098  -1.48498 
 H                     1.33386  -0.23014   2.37373 
 H                     0.02401  -0.97841   1.46341 
 H                     4.8916   -3.06956   0.5776 
 H                     3.61163  -3.50286  -1.68759 
 N                    -3.09254  -1.53175  -0.53055 
 C                    -3.75214  -0.48801   1.54335 
 H                     2.77658   1.48524   0.85562 
 H                    -4.46352  -0.43542   2.36139 
 C                    -3.19762  -2.68116  -1.42431 
 H                    -2.63086  -3.55271  -1.06376 
 H                    -4.2476   -2.97066  -1.52935 
 H                    -2.82029  -2.41322  -2.41565 
 H                    -1.98731   0.39848   2.44705 
 H                     3.55449  -1.48023   2.18392 
 
                          Input orientation:                          
 ---------------------------------------------------------------------
 Center     Atomic      Atomic             Coordinates (Angstroms)
 Number     Number       Type             X           Y           Z
 ---------------------------------------------------------------------
      1          6           0        2.806011    3.955055   -0.329470
      2          6           0        1.641765    3.003166   -0.160979
      3          6           0        0.368414    3.332946   -0.654224
      4          6           0       -0.722555    2.466444   -0.525441
      5          6           0       -2.067094    2.868791   -1.095472
      6          6           0       -0.549885    1.212183    0.121120
      7          6           0       -1.721703    0.294847    0.295603
      8          6           0       -2.600244    0.496235    1.531443
      9          6           0       -3.938084   -1.408487    0.579615
     10          6           0       -1.995267   -0.666421   -0.614458
     11          6           0        0.725794    0.875314    0.626022
     12          6           0        0.973646   -0.443645    1.357588
     13          6           0        1.993311   -1.340255    0.713028
     14          6           0        3.193415   -1.773876    1.204625
     15          6           0        3.925804   -2.647801    0.325755
     16          6           0        3.293056   -2.895018   -0.855339
     17         16           0        1.710359   -2.034739   -0.949488
     18          6           0        1.798797    1.769412    0.474894
     19          1           0        3.095334    4.049792   -1.384515
     20          1           0        2.556681    4.962000    0.027396
     21          1           0        3.685229    3.610578    0.224149
     22          1           0        0.224117    4.287647   -1.154911
     23          1           0       -2.014562    3.863551   -1.548981
     24          1           0       -2.406639    2.162978   -1.862114
     25          1           0       -2.847051    2.893309   -0.324747
     26          1           0       -2.973530    1.536173    1.566203
     27          1           0       -4.768494   -2.105799    0.601642
     28          1           0       -1.364154   -0.810982   -1.484977
     29          1           0        1.333856   -0.230138    2.373734
     30          1           0        0.024006   -0.978414    1.463406
     31          1           0        4.891601   -3.069564    0.577598
     32          1           0        3.611625   -3.502861   -1.687589
     33          7           0       -3.092537   -1.531753   -0.530548
     34          6           0       -3.752142   -0.488010    1.543354
     35          1           0        2.776578    1.485242    0.855616
     36          1           0       -4.463523   -0.435416    2.361386
     37          6           0       -3.197623   -2.681159   -1.424306
     38          1           0       -2.630862   -3.552708   -1.063761
     39          1           0       -4.247599   -2.970657   -1.529349
     40          1           0       -2.820294   -2.413223   -2.415647
     41          1           0       -1.987305    0.398484    2.447047
     42          1           0        3.554487   -1.480230    2.183920
 ---------------------------------------------------------------------
                    Distance matrix (angstroms):
                    1          2          3          4          5
     1  C    0.000000
     2  C    1.513258   0.000000
     3  C    2.536605   1.404802   0.000000
     4  C    3.834729   2.451716   1.399151   0.000000
     5  C    5.051127   3.827136   2.518301   1.514795   0.000000
     6  C    4.357570   2.844386   2.437636   1.421628   2.554676
     7  C    5.855598   4.342393   3.807992   2.527497   2.946111
     8  C    6.682367   5.209955   4.651559   3.411482   3.579658
     9  C    8.664689   7.151635   6.522996   5.155179   4.960003
    10  C    6.670197   5.186474   4.645805   3.382686   3.568509
    11  C    3.837326   2.446656   2.794048   2.440344   3.838973
    12  C    5.054927   3.825302   4.321612   3.858952   5.122093
    13  C    5.457801   4.444410   5.133077   4.837426   6.121571
    14  C    5.943415   5.205057   6.124996   6.025634   7.383614
    15  C    6.729113   6.114505   7.027426   6.963281   8.268464
    16  C    6.887471   6.164209   6.883423   6.706656   7.874666
    17  S    6.120662   5.099700   5.540762   5.134154   6.191532
    18  C    2.537423   1.396833   2.401154   2.800668   4.315066
    19  H    1.098091   2.169177   2.912608   4.221525   5.303675
    20  H    1.097022   2.170158   2.811927   4.157742   5.198235
    21  H    1.094615   2.166337   3.442366   4.615137   5.948182
    22  H    2.730961   2.155810   1.087641   2.146905   2.695614
    23  H    4.973279   4.004440   2.600136   2.160746   1.094522
    24  H    5.721211   4.470945   3.244802   2.171388   1.095994
    25  H    5.751907   4.493146   3.262062   2.176230   1.096791
    26  H    6.545812   5.141612   4.396280   3.210493   3.111593
    27  H    9.745463   8.232529   7.585840   6.208490   5.909679
    28  H    6.437436   5.033512   4.567722   3.474749   3.766506
    29  H    5.195228   4.119931   4.774534   4.461569   5.762396
    30  H    5.940797   4.594426   4.815683   4.047210   5.071641
    31  H    7.383612   6.927119   7.935285   7.961333   9.299820
    32  H    7.623255   6.967013   7.636394   7.467818   8.555490
    33  N    8.058434   6.566254   5.971497   4.647840   4.553621
    34  C    8.139881   6.647352   6.033907   4.710319   4.590305
    35  H    2.739575   2.150665   3.390115   3.887674   5.402047
    36  H    8.908595   7.447195   6.829500   5.545214   5.348881
    37  C    9.015632   7.571474   7.034139   5.782018   5.673462
    38  H    9.298671   7.877172   7.521676   6.337319   6.446277
    39  H    9.957842   8.499624   7.861859   6.557121   6.248360
    40  H    8.749995   7.370941   6.803597   5.637778   5.496348
    41  H    6.582866   5.172651   4.876306   3.835588   4.319517
    42  H    6.034871   5.409057   6.432168   6.419498   7.827552
                    6          7          8          9         10
     6  C    0.000000
     7  C    1.498368   0.000000
     8  C    2.589510   1.529605   0.000000
     9  C    4.307902   2.809689   2.514708   0.000000
    10  C    2.481805   1.351697   2.514489   2.398126   0.000000
    11  C    1.412715   2.536998   3.467855   5.193232   3.364507
    12  C    2.567444   2.989664   3.699499   5.065694   3.571140
    13  C    3.651457   4.080335   5.014304   5.933288   4.257350
    14  C    4.909463   5.409651   6.231107   7.168154   5.608738
    15  C    5.913810   6.368235   7.343565   7.964991   6.314186
    16  C    5.708832   6.053736   7.206130   7.520522   5.743782
    17  S    4.098464   4.330851   5.580515   5.885173   3.964367
    18  C    2.439665   3.821048   4.699876   6.559101   4.638415
    19  H    4.858661   6.334529   7.319166   9.116994   6.982111
    20  H    4.870386   6.337099   6.985635   9.114276   7.267140
    21  H    4.868173   6.343035   7.135497   9.134127   7.159889
    22  H    3.418452   4.672543   5.437676   7.264877   5.455323
    23  H    3.458940   4.027891   4.601179   6.002103   4.625403
    24  H    2.878327   2.935097   3.785729   4.589415   3.119515
    25  H    2.881311   2.898835   3.041762   4.529202   3.671668
    26  H    2.840297   2.173105   1.105451   3.251883   3.250185
    27  H    5.388559   3.890976   3.512324   1.084578   3.352834
    28  H    2.708464   2.126303   3.512197   3.353307   1.084899
    29  H    3.271550   3.732382   4.088302   5.692163   4.494741
    30  H    2.632451   2.456106   3.010964   4.082182   2.914159
    31  H    6.939128   7.425266   8.351795   8.984571   7.390876
    32  H    6.543794   6.841054   8.058676   8.156269   6.374499
    33  N    3.797227   2.428617   2.933751   1.400930   1.399944
    34  C    3.894593   2.508472   1.515173   1.345602   2.788296
    35  H    3.417514   4.686703   5.508638   7.316866   5.437028
    36  H    4.801035   3.509746   2.242451   2.097060   3.873151
    37  C    4.955499   3.740727   4.380542   2.486700   2.482072
    38  H    5.332785   4.180684   4.809362   3.001199   2.989399
    39  H    5.821794   4.513770   4.909335   2.642708   3.349556
    40  H    4.973280   3.986405   4.908451   3.351200   2.641263
    41  H    2.852756   2.170253   1.106156   3.249305   3.241435
    42  H    5.324481   5.878335   6.497142   7.662739   6.268411
                   11         12         13         14         15
    11  C    0.000000
    12  C    1.528487   0.000000
    13  C    2.554000   1.503025   0.000000
    14  C    3.666353   2.592352   1.367459   0.000000
    15  C    4.768916   3.825993   2.365203   1.439636   0.000000
    16  C    4.795901   4.035584   2.562499   2.347411   1.362523
    17  S    3.452537   2.897745   1.823823   2.628252   2.628742
    18  C    1.404844   2.521437   3.124832   3.877158   4.904913
    19  H    4.442329   5.675532   5.887847   6.374039   6.962216
    20  H    4.517909   5.787608   6.364424   6.867556   7.737738
    21  H    4.049867   5.007404   5.254744   5.495049   6.263825
    22  H    3.881677   5.409211   6.188095   7.150259   7.999706
    23  H    4.601060   5.994119   6.946893   8.153892   9.011120
    24  H    4.202504   5.346708   6.185754   7.500954   8.248042
    25  H    4.212064   5.344459   6.513766   7.785167   8.774886
    26  H    3.873716   4.420792   5.802694   7.008450   8.163649
    27  H    6.250986   6.025478   6.805914   7.991605   8.715543
    28  H    3.415815   3.698705   4.047706   5.378899   5.885262
    29  H    2.155519   1.099040   2.103612   2.684754   4.093593
    30  H    2.151749   1.094985   2.138261   3.277938   4.393760
    31  H    5.737452   4.780607   3.377712   2.226164   1.083546
    32  H    5.731425   5.058739   3.613692   3.395466   2.209839
    33  N    4.659536   4.613337   5.239180   6.525538   7.157928
    34  C    4.769912   4.729646   5.867367   7.071701   8.068339
    35  H    2.151846   2.687591   2.935519   3.304150   4.322443
    36  H    5.626590   5.529058   6.725067   7.858643   8.911748
    37  C    5.678516   5.490436   5.771656   6.969922   7.335328
    38  H    5.807744   5.340569   5.425394   6.498617   6.763097
    39  H    6.646183   6.479321   6.829013   8.017206   8.387500
    40  H    5.713227   5.701800   5.840433   7.048392   7.285613
    41  H    3.302182   3.265476   4.677108   5.753488   6.981733
    42  H    3.997141   2.901392   2.149508   1.084260   2.225730
                   16         17         18         19         20
    16  C    0.000000
    17  S    1.803850   0.000000
    18  C    5.075356   4.063035   0.000000
    19  H    6.967748   6.255311   3.215360   0.000000
    20  H    7.940668   7.115119   3.311685   1.765152   0.000000
    21  H    6.606200   6.094845   2.647903   1.768809   1.771630
    22  H    7.816573   6.497975   3.387830   2.890187   2.700640
    23  H    8.621497   7.001732   4.798249   5.115933   4.958610
    24  H    7.686575   5.950075   4.827234   5.836084   6.003276
    25  H    8.455009   6.741361   4.846285   6.145934   5.796879
    26  H    8.047945   6.404602   4.901067   7.201120   6.684867
    27  H    8.230082   6.662326   7.626443  10.182137  10.195182
    28  H    5.140939   3.352157   4.528111   6.597291   7.140556
    29  H    4.622441   3.800282   2.796420   5.961966   5.827427
    30  H    4.442594   3.127566   3.417248   6.544201   6.615519
    31  H    2.153862   3.677384   5.743838   7.600111   8.382159
    32  H    1.078703   2.512964   5.979928   7.576343   8.701032
    33  N    6.537567   4.847300   5.986130   8.376912   8.625184
    34  C    7.821907   6.200447   6.086911   8.720779   8.473605
    35  H    4.730834   4.097010   1.087087   3.420045   3.580803
    36  H    8.749942   7.185857   6.901940   9.554328   9.157667
    37  C    6.519078   4.973087   6.955484   9.214586   9.676639
    38  H    5.963958   4.600379   7.093257   9.523141  10.030029
    39  H    7.571096   6.058832   7.940035  10.160037  10.566396
    40  H    6.327696   4.776996   6.869182   8.822043   9.448504
    41  H    7.045220   5.579403   4.483681   7.337993   6.879549
    42  H    3.362598   3.677844   4.069815   6.597400   6.866479
                   21         22         23         24         25
    21  H    0.000000
    22  H    3.786757   0.000000
    23  H    5.974580   2.312322   0.000000
    24  H    6.599916   3.454740   1.773055   0.000000
    25  H    6.594425   3.473532   1.770072   1.758079   0.000000
    26  H    7.102347   5.019962   4.005082   3.530950   2.330988
    27  H   10.211998   8.299867   6.916824   5.465429   5.435184
    28  H    6.925863   5.350473   4.719999   3.173869   4.155345
    29  H    4.990067   5.838941   6.584671   6.136833   5.875177
    30  H    5.999930   5.884473   6.055977   5.180296   5.141080
    31  H    6.797393   8.883442  10.014265   9.305697   9.811056
    32  H    7.366218   8.511814   9.270233   8.267508   9.191454
    33  N    8.541150   6.727216   5.595404   3.986798   4.436642
    34  C    8.593789   6.774819   5.614072   4.520545   3.967658
    35  H    2.396132   4.290775   5.864594   5.891614   5.916174
    36  H    9.345588   7.526330   6.306306   5.368461   4.572603
    37  C    9.469795   7.768213   6.651948   4.927778   5.692682
    38  H    9.636617   8.344482   7.457624   5.775527   6.491842
    39  H   10.455485   8.533430   7.189801   5.463888   6.148065
    40  H    9.250758   7.467232   6.387347   4.628080   5.703671
    41  H    6.887414   5.743699   5.289203   4.675270   3.827030
    42  H    5.456567   7.450340   8.573497   8.073313   8.148677
                   26         27         28         29         30
    26  H    0.000000
    27  H    4.173276   0.000000
    28  H    4.172401   4.197626   0.000000
    29  H    4.724990   6.625488   4.744079   0.000000
    30  H    3.913941   4.998169   3.263125   1.761908   0.000000
    31  H    9.167903   9.708082   6.963467   4.893464   5.371317
    32  H    8.907485   8.798793   5.660887   5.691511   5.401168
    33  N    3.717889   2.102431   2.101845   5.451790   3.740973
    34  C    2.168888   2.130031   3.870089   5.159787   3.808698
    35  H    5.794072   8.359916   5.281731   2.707149   3.743750
    36  H    2.596066   2.445380   4.953953   5.801025   4.608593
    37  C    5.174867   2.627383   2.619704   6.400540   4.649421
    38  H    5.738540   3.071902   3.049432   6.210864   4.479050
    39  H    5.614019   2.358057   3.602835   7.341467   5.583209
    40  H    5.610378   3.604723   2.356622   6.705296   5.019539
    41  H    1.744380   4.172765   4.160762   3.380925   2.628454
    42  H    7.217705   8.495113   6.172660   2.555379   3.638029
                   31         32         33         34         35
    31  H    0.000000
    32  H    2.637642   0.000000
    33  N    8.206053   7.083064   0.000000
    34  C    9.072563   8.587979   2.413617   0.000000
    35  H    5.029600   5.660951   6.743161   6.854990   0.000000
    36  H    9.881244   9.539991   3.383022   1.085360   7.640375
    37  C    8.342303   6.863699   1.459788   3.731541   7.632039
    38  H    7.714592   6.273778   2.140495   4.176924   7.635794
    39  H    9.379445   7.878812   2.098146   3.981271   8.653448
    40  H    8.298411   6.564066   2.098739   4.499831   7.564666
    41  H    7.927266   7.978955   3.716642   2.171908   5.138898
    42  H    2.625667   4.368396   7.180106   7.401463   3.341191
                   36         37         38         39         40
    36  H    0.000000
    37  C    4.580101   0.000000
    38  H    4.980742   1.100367   0.000000
    39  H    4.648859   1.094209   1.780279   0.000000
    40  H    5.425124   1.094040   1.778175   1.770157   0.000000
    41  H    2.614265   5.092784   5.324646   5.680824   5.678500
    42  H    8.087745   7.749356   7.287053   8.768254   7.916080
                   41         42
    41  H    0.000000
    42  H    5.857496   0.000000
 Stoichiometry    C19H21NS
 Framework group  C1[X(C19H21NS)]
 Deg. of freedom   120
 Full point group                 C1      NOp   1
 Largest Abelian subgroup         C1      NOp   1
 Largest concise Abelian subgroup C1      NOp   1
                         Standard orientation:                         
 ---------------------------------------------------------------------
 Center     Atomic      Atomic             Coordinates (Angstroms)
 Number     Number       Type             X           Y           Z
 ---------------------------------------------------------------------
      1          6           0        2.806012    3.955055   -0.329470
      2          6           0        1.641765    3.003166   -0.160979
      3          6           0        0.368414    3.332946   -0.654224
      4          6           0       -0.722555    2.466444   -0.525441
      5          6           0       -2.067094    2.868791   -1.095472
      6          6           0       -0.549885    1.212183    0.121120
      7          6           0       -1.721703    0.294847    0.295603
      8          6           0       -2.600244    0.496235    1.531443
      9          6           0       -3.938084   -1.408487    0.579615
     10          6           0       -1.995267   -0.666421   -0.614458
     11          6           0        0.725794    0.875314    0.626022
     12          6           0        0.973646   -0.443645    1.357588
     13          6           0        1.993311   -1.340255    0.713028
     14          6           0        3.193415   -1.773876    1.204625
     15          6           0        3.925804   -2.647801    0.325755
     16          6           0        3.293056   -2.895018   -0.855339
     17         16           0        1.710359   -2.034739   -0.949488
     18          6           0        1.798797    1.769412    0.474894
     19          1           0        3.095335    4.049792   -1.384515
     20          1           0        2.556682    4.962000    0.027396
     21          1           0        3.685229    3.610578    0.224149
     22          1           0        0.224118    4.287647   -1.154911
     23          1           0       -2.014562    3.863551   -1.548981
     24          1           0       -2.406639    2.162978   -1.862114
     25          1           0       -2.847051    2.893309   -0.324747
     26          1           0       -2.973530    1.536173    1.566203
     27          1           0       -4.768494   -2.105798    0.601642
     28          1           0       -1.364154   -0.810982   -1.484977
     29          1           0        1.333856   -0.230138    2.373734
     30          1           0        0.024006   -0.978414    1.463406
     31          1           0        4.891601   -3.069564    0.577598
     32          1           0        3.611625   -3.502861   -1.687589
     33          7           0       -3.092537   -1.531753   -0.530548
     34          6           0       -3.752142   -0.488010    1.543354
     35          1           0        2.776578    1.485242    0.855616
     36          1           0       -4.463523   -0.435416    2.361386
     37          6           0       -3.197623   -2.681159   -1.424306
     38          1           0       -2.630862   -3.552708   -1.063761
     39          1           0       -4.247599   -2.970657   -1.529349
     40          1           0       -2.820294   -2.413223   -2.415647
     41          1           0       -1.987305    0.398484    2.447047
     42          1           0        3.554487   -1.480230    2.183920
 ---------------------------------------------------------------------
 Rotational constants (GHZ):           0.3110758           0.2448523           0.1598099
 Standard basis: 6-31G (6D, 7F)
 There are   235 symmetry adapted cartesian basis functions of A   symmetry.
 There are   235 symmetry adapted basis functions of A   symmetry.
   235 basis functions,   570 primitive gaussians,   235 cartesian basis functions
    79 alpha electrons       79 beta electrons
       nuclear repulsion energy      1735.4796527794 Hartrees.
 NAtoms=   42 NActive=   42 NUniq=   42 SFac= 1.00D+00 NAtFMM=   60 NAOKFM=F Big=F
 Integral buffers will be    131072 words long.
 Regular integral format.
 Two-electron integral symmetry is turned on.
 One-electron integrals computed using PRISM.
 NBasis=   235 RedAO= T EigKep=  4.37D-04  NBF=   235
 NBsUse=   235 1.00D-06 EigRej= -1.00D+00 NBFU=   235
 ExpMin= 1.17D-01 ExpMax= 2.19D+04 ExpMxC= 3.30D+03 IAcc=3 IRadAn=         5 AccDes= 0.00D+00
 Harris functional with IExCor=  402 and IRadAn=       5 diagonalized for initial guess.
 HarFok:  IExCor=  402 AccDes= 0.00D+00 IRadAn=         5 IDoV= 1 UseB2=F ITyADJ=14
 ICtDFT=  3500011 ScaDFX=  1.000000  1.000000  1.000000  1.000000
 FoFCou: FMM=F IPFlag=           0 FMFlag=      100000 FMFlg1=           0
         NFxFlg=           0 DoJE=T BraDBF=F KetDBF=T FulRan=T
         wScrn=  0.000000 ICntrl=       500 IOpCl=  0 I1Cent=   200000004 NGrid=           0
         NMat0=    1 NMatS0=      1 NMatT0=    0 NMatD0=    1 NMtDS0=    0 NMtDT0=    0
 Petite list used in FoFCou.
 Requested convergence on RMS density matrix=1.00D-08 within 128 cycles.
 Requested convergence on MAX density matrix=1.00D-06.
 Requested convergence on             energy=1.00D-06.
 No special actions if energy rises.
 Integral accuracy reduced to 1.0D-05 until final iterations.
 Initial convergence to 1.0D-05 achieved.  Increase integral accuracy.
 SCF Done:  E(RB3LYP) =  -1189.34800392     A.U. after   16 cycles
            NFock= 16  Conv=0.39D-08     -V/T= 2.0045
 DoSCS=F DFT=T ScalE2(SS,OS)=  1.000000  1.000000
 ExpMin= 1.17D-01 ExpMax= 2.19D+04 ExpMxC= 3.30D+03 IAcc=3 IRadAn=         5 AccDes= 0.00D+00
 HarFok:  IExCor=  205 AccDes= 0.00D+00 IRadAn=         5 IDoV=-2 UseB2=F ITyADJ=14
 ICtDFT= 12500011 ScaDFX=  1.000000  1.000000  1.000000  1.000000
 GSVD:  LWork=        -825 too small for GESVD, short by        3500 words or        3500 for optimal perf.
 Range of M.O.s used for correlation:    26   235
 NBasis=   235 NAE=    79 NBE=    79 NFC=    25 NFV=     0
 NROrb=    210 NOA=    54 NOB=    54 NVA=   156 NVB=   156

 **** Warning!!: The largest alpha MO coefficient is  0.14275297D+02

 Keep R1, R2, and R3 ints in memory in canonical form, NReq=1261376028.
 Orbital symmetries:
       Occupied  (A) (A) (A) (A) (A) (A) (A) (A) (A) (A) (A) (A)
                 (A) (A) (A) (A) (A) (A) (A) (A) (A) (A) (A) (A)
                 (A) (A) (A) (A) (A) (A) (A) (A) (A) (A) (A) (A)
                 (A) (A) (A) (A) (A) (A) (A) (A) (A) (A) (A) (A)
                 (A) (A) (A) (A) (A) (A) (A) (A) (A) (A) (A) (A)
                 (A) (A) (A) (A) (A) (A) (A) (A) (A) (A) (A) (A)
                 (A) (A) (A) (A) (A) (A) (A)
       Virtual   (A) (A) (A) (A) (A) (A) (A) (A) (A) (A) (A) (A)
                 (A) (A) (A) (A) (A) (A) (A) (A) (A) (A) (A) (A)
                 (A) (A) (A) (A) (A) (A) (A) (A) (A) (A) (A) (A)
                 (A) (A) (A) (A) (A) (A) (A) (A) (A) (A) (A) (A)
                 (A) (A) (A) (A) (A) (A) (A) (A) (A) (A) (A) (A)
                 (A) (A) (A) (A) (A) (A) (A) (A) (A) (A) (A) (A)
                 (A) (A) (A) (A) (A) (A) (A) (A) (A) (A) (A) (A)
                 (A) (A) (A) (A) (A) (A) (A) (A) (A) (A) (A) (A)
                 (A) (A) (A) (A) (A) (A) (A) (A) (A) (A) (A) (A)
                 (A) (A) (A) (A) (A) (A) (A) (A) (A) (A) (A) (A)
                 (A) (A) (A) (A) (A) (A) (A) (A) (A) (A) (A) (A)
                 (A) (A) (A) (A) (A) (A) (A) (A) (A) (A) (A) (A)
                 (A) (A) (A) (A) (A) (A) (A) (A) (A) (A) (A) (A)
    24 initial guesses have been made.
 Convergence on wavefunction:    0.001000000000000
 Iteration     1 Dimension    24 NMult     0 NNew     24
 CISAX will form    24 AO SS matrices at one time.
 New state      1 was old state      8
 New state      2 was old state     12
 New state      3 was old state      1
 New state      4 was old state      2
 New state      5 was old state      3
 New state      6 was old state      4
 New state      7 was old state      6
 New state      8 was old state      5
 New state      9 was old state     24
 New state     10 was old state     22
 New state     11 was old state      7
 New state     12 was old state     10
 Vector   6 SDiff=4.47D+00 TDiff=7.65D+00 assumed to be singlet.
 Vector  12 SDiff=4.49D+00 TDiff=7.54D+00 assumed to be singlet.
 Iteration     2 Dimension    36 NMult    24 NNew     12
 New state      3 was old state      4
 New state      4 was old state      3
 New state      6 was old state      8
 Iteration     3 Dimension    48 NMult    36 NNew     12
 Iteration     4 Dimension    60 NMult    48 NNew     12
 Iteration     5 Dimension    70 NMult    60 NNew     10
 Iteration     6 Dimension    78 NMult    70 NNew      8
 No map to state      3
 Iteration     7 Dimension    82 NMult    78 NNew      4
 Iteration     8 Dimension    84 NMult    82 NNew      2
 Iteration     9 Dimension    86 NMult    84 NNew      2
 Iteration    10 Dimension    88 NMult    86 NNew      2
 ***********************************************************************
 Excited states from <AA,BB:AA,BB> singles matrix:
 ***********************************************************************
 
 Ground to excited state transition densities written to RWF  633
 Ground to excited state transition electric dipole moments (Au):
       state          X           Y           Z        Dip. S.      Osc.
         1         0.0000      0.0000      0.0000      0.0000      0.0000
         2         0.0000      0.0000      0.0000      0.0000      0.0000
         3        -0.0000     -0.0000      0.0000      0.0000      0.0000
         4        -0.3481      0.0632      0.0411      0.1268      0.0116
         5        -0.2685     -0.1277      0.1254      0.1042      0.0104
         6        -0.0030     -0.1303      0.0222      0.0175      0.0018
 Ground to excited state transition velocity dipole moments (Au):
       state          X           Y           Z        Dip. S.      Osc.
         1        -0.0000     -0.0000     -0.0000      0.0000      0.0000
         2        -0.0000     -0.0000     -0.0000      0.0000      0.0000
         3         0.0000     -0.0000     -0.0000      0.0000      0.0000
         4         0.0375     -0.0050     -0.0082      0.0015      0.0073
         5         0.0484      0.0199     -0.0229      0.0033      0.0146
         6        -0.0002      0.0258     -0.0099      0.0008      0.0033
 Ground to excited state transition magnetic dipole moments (Au):
       state          X           Y           Z
         1        -0.0000     -0.0000      0.0000
         2        -0.0000      0.0000      0.0000
         3         0.0000     -0.0000      0.0000
         4         0.1399      0.0107      0.0778
         5         0.3645     -0.5269      0.2071
         6         0.1644     -0.1399     -0.0595
 Ground to excited state transition velocity quadrupole moments (Au):
       state          XX          YY          ZZ          XY          XZ          YZ
         1        -0.0000     -0.0000     -0.0000      0.0000      0.0000     -0.0000
         2        -0.0000     -0.0000     -0.0000      0.0000     -0.0000     -0.0000
         3        -0.0000      0.0000     -0.0000      0.0000      0.0000     -0.0000
         4        -0.0133      0.0731     -0.0342     -0.1346      0.0493     -0.0010
         5        -0.2885      0.0946     -0.0998     -0.0550      0.1585     -0.0025
         6        -0.0613      0.0252     -0.0256      0.0043      0.0602     -0.0112
 <0|del|b> * <b|rxdel|0> + <0|del|b> * <b|delr+rdel|0>
 Rotatory Strengths (R) in cgs (10**-40 erg-esu-cm/Gauss)
       state          XX          YY          ZZ    R(velocity)    E-M Angle
         1        -0.0000      0.0000     -0.0000      0.0000       90.00
         2        -0.0000      0.0000      0.0000     -0.0000       90.00
         3        -0.0000      0.0000      0.0000      0.0000       90.00
         4         1.6922      8.9590     12.8704      7.8405       42.80
         5       -40.5037     27.2791     24.7105      3.8286       86.38
         6       -10.7265      1.3938     -4.8612     -4.7313      119.57
 1/2[<0|r|b>*<b|rxdel|0> + (<0|rxdel|b>*<b|r|0>)*]
 Rotatory Strengths (R) in cgs (10**-40 erg-esu-cm/Gauss)
       state          XX          YY          ZZ     R(length)
         1         0.0000      0.0000     -0.0000      0.0000
         2         0.0000     -0.0000     -0.0000     -0.0000
         3         0.0000     -0.0000     -0.0000     -0.0000
         4        34.4297     -0.4805     -2.2611     10.5627
         5        69.2163    -47.5884    -18.3727      1.0851
         6         0.3503    -12.8953      0.9335     -3.8705
  1/2[<0|del|b>*<b|r|0> + (<0|r|b>*<b|del|0>)*] (Au)
       state          X           Y           Z        Dip. S.   Osc.(frdel)
         1        -0.0000     -0.0000     -0.0000      0.0000      0.0000
         2        -0.0000     -0.0000     -0.0000      0.0000      0.0000
         3        -0.0000      0.0000     -0.0000      0.0000      0.0000
         4        -0.0131     -0.0003     -0.0003      0.0137      0.0091
         5        -0.0130     -0.0025     -0.0029      0.0184      0.0123
         6         0.0000     -0.0034     -0.0002      0.0036      0.0024

 Excitation energies and oscillator strengths:
 
 Excited State   1:      Triplet-A      2.8458 eV  435.68 nm  f=0.0000  <S**2>=2.000
      74 -> 85        -0.13546
      79 -> 81         0.33889
      79 -> 83         0.59143
 This state for optimization and/or second-order correction.
 Total Energy, E(TD-HF/TD-DFT) =  -1189.24342306    
 Copying the excited state density for this state as the 1-particle RhoCI density.
 
 Excited State   2:      Triplet-A      3.2562 eV  380.77 nm  f=0.0000  <S**2>=2.000
      76 -> 80        -0.33112
      78 -> 80         0.58005
      78 -> 82        -0.11897
      79 -> 80        -0.12177
 
 Excited State   3:      Triplet-A      3.6384 eV  340.76 nm  f=0.0000  <S**2>=2.000
      76 -> 81         0.32656
      76 -> 83        -0.14083
      77 -> 80        -0.16765
      77 -> 82        -0.47552
      78 -> 81         0.27613
      78 -> 83        -0.12612
 
 Excited State   4:      Singlet-A      3.7292 eV  332.47 nm  f=0.0116  <S**2>=0.000
      79 -> 80         0.69724
      79 -> 82         0.10649
 
 Excited State   5:      Singlet-A      4.0637 eV  305.10 nm  f=0.0104  <S**2>=0.000
      79 -> 81         0.69516
 
 Excited State   6:      Singlet-A      4.1433 eV  299.24 nm  f=0.0018  <S**2>=0.000
      79 -> 80        -0.10041
      79 -> 81         0.10810
      79 -> 82         0.68805
 SavETr:  write IOETrn=   770 NScale= 10 NData=  16 NLR=1 NState=    6 LETran=     118.

 **********************************************************************

            Population analysis using the SCF Density.

 **********************************************************************

 Orbital symmetries:
       Occupied  (A) (A) (A) (A) (A) (A) (A) (A) (A) (A) (A) (A)
                 (A) (A) (A) (A) (A) (A) (A) (A) (A) (A) (A) (A)
                 (A) (A) (A) (A) (A) (A) (A) (A) (A) (A) (A) (A)
                 (A) (A) (A) (A) (A) (A) (A) (A) (A) (A) (A) (A)
                 (A) (A) (A) (A) (A) (A) (A) (A) (A) (A) (A) (A)
                 (A) (A) (A) (A) (A) (A) (A) (A) (A) (A) (A) (A)
                 (A) (A) (A) (A) (A) (A) (A)
       Virtual   (A) (A) (A) (A) (A) (A) (A) (A) (A) (A) (A) (A)
                 (A) (A) (A) (A) (A) (A) (A) (A) (A) (A) (A) (A)
                 (A) (A) (A) (A) (A) (A) (A) (A) (A) (A) (A) (A)
                 (A) (A) (A) (A) (A) (A) (A) (A) (A) (A) (A) (A)
                 (A) (A) (A) (A) (A) (A) (A) (A) (A) (A) (A) (A)
                 (A) (A) (A) (A) (A) (A) (A) (A) (A) (A) (A) (A)
                 (A) (A) (A) (A) (A) (A) (A) (A) (A) (A) (A) (A)
                 (A) (A) (A) (A) (A) (A) (A) (A) (A) (A) (A) (A)
                 (A) (A) (A) (A) (A) (A) (A) (A) (A) (A) (A) (A)
                 (A) (A) (A) (A) (A) (A) (A) (A) (A) (A) (A) (A)
                 (A) (A) (A) (A) (A) (A) (A) (A) (A) (A) (A) (A)
                 (A) (A) (A) (A) (A) (A) (A) (A) (A) (A) (A) (A)
                 (A) (A) (A) (A) (A) (A) (A) (A) (A) (A) (A) (A)
 The electronic state is 1-A.
 Alpha  occ. eigenvalues --  -88.87981 -14.35503 -10.21978 -10.21740 -10.20955
 Alpha  occ. eigenvalues --  -10.20876 -10.20812 -10.18933 -10.18661 -10.18651
 Alpha  occ. eigenvalues --  -10.18546 -10.18473 -10.18342 -10.18143 -10.18000
 Alpha  occ. eigenvalues --  -10.17480 -10.17087 -10.16879 -10.16851 -10.16620
 Alpha  occ. eigenvalues --  -10.16546  -7.95832  -5.92168  -5.91782  -5.91266
 Alpha  occ. eigenvalues --   -0.95436  -0.87052  -0.85578  -0.80438  -0.78589
 Alpha  occ. eigenvalues --   -0.77472  -0.75264  -0.73213  -0.72439  -0.71213
 Alpha  occ. eigenvalues --   -0.68652  -0.67611  -0.66851  -0.63027  -0.61199
 Alpha  occ. eigenvalues --   -0.57608  -0.55932  -0.55179  -0.52764  -0.51722
 Alpha  occ. eigenvalues --   -0.49670  -0.48987  -0.47852  -0.47538  -0.45534
 Alpha  occ. eigenvalues --   -0.45044  -0.43021  -0.42532  -0.41816  -0.41543
 Alpha  occ. eigenvalues --   -0.41319  -0.40709  -0.40441  -0.40294  -0.40053
 Alpha  occ. eigenvalues --   -0.39743  -0.38696  -0.38502  -0.36678  -0.36095
 Alpha  occ. eigenvalues --   -0.35765  -0.35297  -0.34525  -0.33532  -0.33100
 Alpha  occ. eigenvalues --   -0.32585  -0.32066  -0.31195  -0.25418  -0.24439
 Alpha  occ. eigenvalues --   -0.23236  -0.22332  -0.21862  -0.16553
 Alpha virt. eigenvalues --   -0.00879   0.00856   0.01267   0.01877   0.04018
 Alpha virt. eigenvalues --    0.07105   0.07743   0.08230   0.09796   0.10674
 Alpha virt. eigenvalues --    0.11362   0.11928   0.12453   0.13078   0.13450
 Alpha virt. eigenvalues --    0.14056   0.14584   0.14885   0.16175   0.16538
 Alpha virt. eigenvalues --    0.16767   0.17327   0.17801   0.18180   0.18557
 Alpha virt. eigenvalues --    0.18855   0.19369   0.19612   0.20338   0.21124
 Alpha virt. eigenvalues --    0.23072   0.24579   0.24897   0.25864   0.26937
 Alpha virt. eigenvalues --    0.27215   0.29349   0.29463   0.29813   0.32155
 Alpha virt. eigenvalues --    0.33346   0.34466   0.35769   0.36296   0.37388
 Alpha virt. eigenvalues --    0.38091   0.39571   0.40063   0.41529   0.42107
 Alpha virt. eigenvalues --    0.43474   0.45212   0.47099   0.48840   0.50673
 Alpha virt. eigenvalues --    0.52010   0.53462   0.54274   0.54567   0.55696
 Alpha virt. eigenvalues --    0.56524   0.56645   0.57350   0.58189   0.58677
 Alpha virt. eigenvalues --    0.59014   0.59490   0.60134   0.61094   0.61240
 Alpha virt. eigenvalues --    0.61580   0.62742   0.63581   0.63931   0.64528
 Alpha virt. eigenvalues --    0.65300   0.65523   0.66285   0.67343   0.67975
 Alpha virt. eigenvalues --    0.68511   0.68992   0.70596   0.71906   0.73213
 Alpha virt. eigenvalues --    0.73532   0.73892   0.76011   0.76233   0.77204
 Alpha virt. eigenvalues --    0.78295   0.78814   0.79707   0.80093   0.81619
 Alpha virt. eigenvalues --    0.82453   0.82794   0.85122   0.85904   0.86505
 Alpha virt. eigenvalues --    0.87379   0.87697   0.88258   0.88616   0.89716
 Alpha virt. eigenvalues --    0.90648   0.90932   0.92412   0.92573   0.93665
 Alpha virt. eigenvalues --    0.94372   0.94707   0.95209   0.96712   0.97178
 Alpha virt. eigenvalues --    0.97278   0.97655   0.97823   0.98555   0.98909
 Alpha virt. eigenvalues --    0.99664   1.02042   1.02449   1.03945   1.06325
 Alpha virt. eigenvalues --    1.07632   1.09482   1.10371   1.12531   1.13200
 Alpha virt. eigenvalues --    1.14973   1.16642   1.17746   1.18398   1.20557
 Alpha virt. eigenvalues --    1.24094   1.25344   1.26529   1.28932   1.31739
 Alpha virt. eigenvalues --    1.33280   1.34090   1.37147   1.41720   1.44134
 Alpha virt. eigenvalues --    1.47566   1.50395   1.50894   1.53147   1.55630
 Alpha virt. eigenvalues --    1.57346   1.63756   1.66226   1.72766   1.92965
 Alpha virt. eigenvalues --    1.96092
          Condensed to atoms (all electrons):
               1          2          3          4          5          6
     1  C    5.166610   0.306359  -0.050117   0.005129  -0.000213   0.001090
     2  C    0.306359   4.786666   0.506524  -0.039359   0.006039  -0.027461
     3  C   -0.050117   0.506524   5.077517   0.506389  -0.046928  -0.045381
     4  C    0.005129  -0.039359   0.506389   4.892511   0.315773   0.487473
     5  C   -0.000213   0.006039  -0.046928   0.315773   5.172682  -0.052926
     6  C    0.001090  -0.027461  -0.045381   0.487473  -0.052926   5.039159
     7  C    0.000004   0.000038   0.008206  -0.066734  -0.008299   0.334038
     8  C   -0.000000   0.000007  -0.000007  -0.001658  -0.001678  -0.044449
     9  C    0.000000   0.000000   0.000000   0.000010   0.000044   0.000798
    10  C   -0.000000   0.000030  -0.000046  -0.004250   0.001082  -0.016636
    11  C    0.006109  -0.036531  -0.049935  -0.040258   0.006643   0.508097
    12  C   -0.000225   0.005026   0.000870   0.005375  -0.000166  -0.035461
    13  C   -0.000000   0.000269   0.000016  -0.000152   0.000002  -0.001902
    14  C   -0.000001   0.000028   0.000001   0.000001  -0.000000  -0.000134
    15  C    0.000000   0.000001  -0.000000  -0.000000   0.000000   0.000006
    16  C   -0.000000  -0.000001   0.000000   0.000000  -0.000000   0.000003
    17  S    0.000005  -0.000234  -0.000018  -0.000000  -0.000001   0.001585
    18  C   -0.038197   0.539631  -0.052549  -0.044333   0.000759  -0.057494
    19  H    0.366165  -0.032450  -0.002715   0.000020   0.000002   0.000012
    20  H    0.365841  -0.033486  -0.002559   0.000129   0.000000   0.000013
    21  H    0.366187  -0.035052   0.003223  -0.000186   0.000002  -0.000014
    22  H   -0.005146  -0.045103   0.345192  -0.032269  -0.007540   0.004615
    23  H   -0.000002   0.000446  -0.001634  -0.036026   0.359203   0.004216
    24  H    0.000003  -0.000190   0.000243  -0.031573   0.366052  -0.004131
    25  H    0.000003  -0.000214   0.000289  -0.029632   0.362918  -0.005904
    26  H   -0.000000  -0.000013  -0.000139   0.003598  -0.001581  -0.003186
    27  H   -0.000000  -0.000000   0.000000   0.000000   0.000000  -0.000011
    28  H   -0.000000  -0.000010  -0.000010   0.000514   0.000045  -0.002986
    29  H    0.000003   0.000068  -0.000000  -0.000128   0.000002   0.001343
    30  H    0.000002  -0.000161  -0.000024   0.000530  -0.000001  -0.010154
    31  H    0.000000   0.000000  -0.000000   0.000000  -0.000000  -0.000000
    32  H   -0.000000   0.000000  -0.000000   0.000000  -0.000000   0.000000
    33  N   -0.000000  -0.000000   0.000001   0.000083  -0.000168   0.003233
    34  C    0.000000   0.000000   0.000001   0.000090   0.000045   0.006048
    35  H   -0.007181  -0.034566   0.004976   0.000814   0.000010   0.003855
    36  H   -0.000000  -0.000000  -0.000000  -0.000001  -0.000002  -0.000185
    37  C   -0.000000   0.000000  -0.000000  -0.000000   0.000001  -0.000057
    38  H   -0.000000  -0.000000  -0.000000   0.000001  -0.000000  -0.000000
    39  H    0.000000   0.000000   0.000000  -0.000000   0.000000   0.000002
    40  H    0.000000   0.000000   0.000000  -0.000004   0.000000   0.000004
    41  H    0.000000  -0.000005   0.000032  -0.000795   0.000208  -0.000251
    42  H   -0.000000  -0.000000   0.000000  -0.000000  -0.000000  -0.000004
               7          8          9         10         11         12
     1  C    0.000004  -0.000000   0.000000  -0.000000   0.006109  -0.000225
     2  C    0.000038   0.000007   0.000000   0.000030  -0.036531   0.005026
     3  C    0.008206  -0.000007   0.000000  -0.000046  -0.049935   0.000870
     4  C   -0.066734  -0.001658   0.000010  -0.004250  -0.040258   0.005375
     5  C   -0.008299  -0.001678   0.000044   0.001082   0.006643  -0.000166
     6  C    0.334038  -0.044449   0.000798  -0.016636   0.508097  -0.035461
     7  C    5.040921   0.331924  -0.005178   0.621738  -0.066854  -0.015737
     8  C    0.331924   5.141267  -0.044770  -0.053178  -0.001167  -0.000559
     9  C   -0.005178  -0.044770   4.731686  -0.055631   0.000012   0.000000
    10  C    0.621738  -0.053178  -0.055631   4.831575  -0.004235  -0.002338
    11  C   -0.066854  -0.001167   0.000012  -0.004235   4.986711   0.289853
    12  C   -0.015737  -0.000559   0.000000  -0.002338   0.289853   5.214698
    13  C   -0.001187   0.000055  -0.000002  -0.000514  -0.057625   0.310375
    14  C   -0.000009   0.000000   0.000000  -0.000009  -0.001899  -0.022915
    15  C   -0.000000  -0.000000  -0.000000   0.000000  -0.000145   0.003832
    16  C    0.000005   0.000000   0.000000   0.000012   0.000121   0.003596
    17  S    0.000762   0.000025  -0.000004   0.001758   0.004888  -0.043875
    18  C    0.008720  -0.000060   0.000000  -0.000008   0.456085  -0.053867
    19  H   -0.000000   0.000000   0.000000  -0.000000  -0.000198   0.000004
    20  H   -0.000000  -0.000000  -0.000000   0.000000  -0.000204   0.000002
    21  H   -0.000000  -0.000000  -0.000000   0.000000   0.000380   0.000000
    22  H   -0.000217   0.000001  -0.000000  -0.000004   0.000780   0.000011
    23  H    0.000622   0.000036  -0.000001   0.000079  -0.000162   0.000002
    24  H    0.003586  -0.000002   0.000010   0.002427   0.000038  -0.000001
    25  H    0.000404   0.000799   0.000011  -0.000171  -0.000003   0.000005
    26  H   -0.046822   0.363693   0.000025   0.000393  -0.000314  -0.000126
    27  H   -0.000487   0.005467   0.369161   0.004657   0.000000  -0.000000
    28  H   -0.038146   0.005395   0.003814   0.368538   0.000855   0.000113
    29  H    0.000749   0.000031  -0.000001   0.000127  -0.035762   0.378683
    30  H    0.016232  -0.000096   0.000243   0.004352  -0.040004   0.355406
    31  H    0.000000   0.000000   0.000000   0.000000   0.000001  -0.000122
    32  H   -0.000000   0.000000   0.000000   0.000000   0.000000  -0.000051
    33  N   -0.037507  -0.031495   0.261003   0.222934   0.000154  -0.000017
    34  C   -0.014439   0.312805   0.666665  -0.013243   0.000083  -0.000191
    35  H   -0.000207   0.000001  -0.000000  -0.000004  -0.038212  -0.006295
    36  H    0.003096  -0.037188  -0.032606   0.000825   0.000000  -0.000001
    37  C    0.003931   0.000065  -0.033298  -0.032487  -0.000004   0.000005
    38  H    0.000109   0.000016   0.001442   0.001612  -0.000002  -0.000006
    39  H   -0.000218  -0.000000  -0.001181   0.002297   0.000000   0.000000
    40  H    0.000445  -0.000003   0.002398  -0.000886   0.000002   0.000001
    41  H   -0.048659   0.360655  -0.000515  -0.000931   0.001842   0.003134
    42  H    0.000000   0.000000  -0.000000  -0.000000   0.000118  -0.003960
              13         14         15         16         17         18
     1  C   -0.000000  -0.000001   0.000000  -0.000000   0.000005  -0.038197
     2  C    0.000269   0.000028   0.000001  -0.000001  -0.000234   0.539631
     3  C    0.000016   0.000001  -0.000000   0.000000  -0.000018  -0.052549
     4  C   -0.000152   0.000001  -0.000000   0.000000  -0.000000  -0.044333
     5  C    0.000002  -0.000000   0.000000  -0.000000  -0.000001   0.000759
     6  C   -0.001902  -0.000134   0.000006   0.000003   0.001585  -0.057494
     7  C   -0.001187  -0.000009  -0.000000   0.000005   0.000762   0.008720
     8  C    0.000055   0.000000  -0.000000   0.000000   0.000025  -0.000060
     9  C   -0.000002   0.000000  -0.000000   0.000000  -0.000004   0.000000
    10  C   -0.000514  -0.000009   0.000000   0.000012   0.001758  -0.000008
    11  C   -0.057625  -0.001899  -0.000145   0.000121   0.004888   0.456085
    12  C    0.310375  -0.022915   0.003832   0.003596  -0.043875  -0.053867
    13  C    5.469366   0.488561  -0.028217  -0.067111   0.273017  -0.002189
    14  C    0.488561   4.947643   0.476402  -0.050118  -0.097403   0.000845
    15  C   -0.028217   0.476402   4.899147   0.482682  -0.094305  -0.000039
    16  C   -0.067111  -0.050118   0.482682   5.498711   0.268992  -0.000036
    17  S    0.273017  -0.097403  -0.094305   0.268992  15.301057   0.001137
    18  C   -0.002189   0.000845  -0.000039  -0.000036   0.001137   5.088706
    19  H   -0.000001   0.000000  -0.000000   0.000000   0.000000  -0.000844
    20  H    0.000000  -0.000000   0.000000   0.000000  -0.000000   0.000960
    21  H   -0.000000  -0.000000  -0.000000  -0.000000  -0.000000  -0.001410
    22  H    0.000000  -0.000000  -0.000000   0.000000   0.000000   0.004748
    23  H   -0.000000   0.000000  -0.000000  -0.000000  -0.000000  -0.000014
    24  H   -0.000000  -0.000000   0.000000  -0.000000  -0.000001   0.000019
    25  H    0.000000   0.000000  -0.000000   0.000000   0.000000   0.000015
    26  H   -0.000004  -0.000000   0.000000   0.000000   0.000002   0.000048
    27  H   -0.000000   0.000000   0.000000  -0.000000  -0.000000   0.000000
    28  H   -0.000095   0.000006   0.000000  -0.000014   0.003744  -0.000040
    29  H   -0.056079  -0.007178   0.000672  -0.000128   0.004381  -0.005147
    30  H   -0.034713   0.001517  -0.000250   0.000102  -0.000779   0.005641
    31  H    0.005410  -0.028277   0.356591  -0.041115   0.005029   0.000001
    32  H    0.002500   0.002710  -0.015086   0.364525  -0.025689  -0.000000
    33  N    0.000017   0.000000  -0.000000  -0.000000  -0.000211   0.000001
    34  C    0.000001   0.000000   0.000000  -0.000000  -0.000001   0.000000
    35  H    0.004394   0.002346   0.000023  -0.000052   0.000083   0.342424
    36  H   -0.000000   0.000000  -0.000000   0.000000   0.000000  -0.000000
    37  C    0.000001  -0.000000   0.000000  -0.000000   0.000057  -0.000000
    38  H   -0.000004  -0.000000   0.000000   0.000000   0.000211   0.000000
    39  H    0.000000   0.000000  -0.000000  -0.000000   0.000001   0.000000
    40  H    0.000001   0.000000  -0.000000  -0.000000  -0.000011  -0.000000
    41  H    0.000089   0.000000  -0.000000  -0.000000  -0.000027  -0.000146
    42  H   -0.047071   0.361178  -0.033652   0.006691   0.005376  -0.000009
              19         20         21         22         23         24
     1  C    0.366165   0.365841   0.366187  -0.005146  -0.000002   0.000003
     2  C   -0.032450  -0.033486  -0.035052  -0.045103   0.000446  -0.000190
     3  C   -0.002715  -0.002559   0.003223   0.345192  -0.001634   0.000243
     4  C    0.000020   0.000129  -0.000186  -0.032269  -0.036026  -0.031573
     5  C    0.000002   0.000000   0.000002  -0.007540   0.359203   0.366052
     6  C    0.000012   0.000013  -0.000014   0.004615   0.004216  -0.004131
     7  C   -0.000000  -0.000000  -0.000000  -0.000217   0.000622   0.003586
     8  C    0.000000  -0.000000  -0.000000   0.000001   0.000036  -0.000002
     9  C    0.000000  -0.000000  -0.000000  -0.000000  -0.000001   0.000010
    10  C   -0.000000   0.000000   0.000000  -0.000004   0.000079   0.002427
    11  C   -0.000198  -0.000204   0.000380   0.000780  -0.000162   0.000038
    12  C    0.000004   0.000002   0.000000   0.000011   0.000002  -0.000001
    13  C   -0.000001   0.000000  -0.000000   0.000000  -0.000000  -0.000000
    14  C    0.000000  -0.000000  -0.000000  -0.000000   0.000000  -0.000000
    15  C   -0.000000   0.000000  -0.000000  -0.000000  -0.000000   0.000000
    16  C    0.000000   0.000000  -0.000000   0.000000  -0.000000  -0.000000
    17  S    0.000000  -0.000000  -0.000000   0.000000  -0.000000  -0.000001
    18  C   -0.000844   0.000960  -0.001410   0.004748  -0.000014   0.000019
    19  H    0.579600  -0.034250  -0.029913   0.001175   0.000000  -0.000000
    20  H   -0.034250   0.583562  -0.029659   0.002248  -0.000000   0.000000
    21  H   -0.029913  -0.029659   0.579007   0.000047   0.000000  -0.000000
    22  H    0.001175   0.002248   0.000047   0.612802   0.006165   0.000152
    23  H    0.000000  -0.000000   0.000000   0.006165   0.592748  -0.029474
    24  H   -0.000000   0.000000  -0.000000   0.000152  -0.029474   0.572641
    25  H    0.000000  -0.000000  -0.000000   0.000206  -0.030370  -0.034373
    26  H   -0.000000   0.000000   0.000000   0.000004  -0.000127  -0.000199
    27  H    0.000000  -0.000000  -0.000000  -0.000000  -0.000000  -0.000000
    28  H    0.000000  -0.000000   0.000000   0.000000   0.000002   0.000161
    29  H    0.000000  -0.000000  -0.000001  -0.000000  -0.000000   0.000000
    30  H   -0.000000  -0.000000   0.000000  -0.000000  -0.000000  -0.000001
    31  H   -0.000000   0.000000  -0.000000   0.000000   0.000000   0.000000
    32  H    0.000000   0.000000  -0.000000  -0.000000   0.000000  -0.000000
    33  N    0.000000  -0.000000  -0.000000  -0.000000  -0.000001  -0.000141
    34  C   -0.000000   0.000000   0.000000  -0.000000   0.000002   0.000010
    35  H    0.000169   0.000076   0.005560  -0.000209  -0.000000  -0.000000
    36  H    0.000000  -0.000000   0.000000   0.000000   0.000000  -0.000001
    37  C   -0.000000   0.000000   0.000000   0.000000   0.000000  -0.000002
    38  H    0.000000  -0.000000   0.000000   0.000000  -0.000000  -0.000000
    39  H    0.000000  -0.000000  -0.000000  -0.000000   0.000000  -0.000000
    40  H   -0.000000   0.000000  -0.000000  -0.000000   0.000000   0.000004
    41  H   -0.000000   0.000000  -0.000000  -0.000000   0.000001   0.000013
    42  H   -0.000000   0.000000  -0.000000   0.000000   0.000000   0.000000
              25         26         27         28         29         30
     1  C    0.000003  -0.000000  -0.000000  -0.000000   0.000003   0.000002
     2  C   -0.000214  -0.000013  -0.000000  -0.000010   0.000068  -0.000161
     3  C    0.000289  -0.000139   0.000000  -0.000010  -0.000000  -0.000024
     4  C   -0.029632   0.003598   0.000000   0.000514  -0.000128   0.000530
     5  C    0.362918  -0.001581   0.000000   0.000045   0.000002  -0.000001
     6  C   -0.005904  -0.003186  -0.000011  -0.002986   0.001343  -0.010154
     7  C    0.000404  -0.046822  -0.000487  -0.038146   0.000749   0.016232
     8  C    0.000799   0.363693   0.005467   0.005395   0.000031  -0.000096
     9  C    0.000011   0.000025   0.369161   0.003814  -0.000001   0.000243
    10  C   -0.000171   0.000393   0.004657   0.368538   0.000127   0.004352
    11  C   -0.000003  -0.000314   0.000000   0.000855  -0.035762  -0.040004
    12  C    0.000005  -0.000126  -0.000000   0.000113   0.378683   0.355406
    13  C    0.000000  -0.000004  -0.000000  -0.000095  -0.056079  -0.034713
    14  C    0.000000  -0.000000   0.000000   0.000006  -0.007178   0.001517
    15  C   -0.000000   0.000000   0.000000   0.000000   0.000672  -0.000250
    16  C    0.000000   0.000000  -0.000000  -0.000014  -0.000128   0.000102
    17  S    0.000000   0.000002  -0.000000   0.003744   0.004381  -0.000779
    18  C    0.000015   0.000048   0.000000  -0.000040  -0.005147   0.005641
    19  H    0.000000  -0.000000   0.000000   0.000000   0.000000  -0.000000
    20  H   -0.000000   0.000000  -0.000000  -0.000000  -0.000000  -0.000000
    21  H   -0.000000   0.000000  -0.000000   0.000000  -0.000001   0.000000
    22  H    0.000206   0.000004  -0.000000   0.000000  -0.000000  -0.000000
    23  H   -0.030370  -0.000127  -0.000000   0.000002  -0.000000  -0.000000
    24  H   -0.034373  -0.000199  -0.000000   0.000161   0.000000  -0.000001
    25  H    0.578448   0.005534  -0.000000   0.000019  -0.000000   0.000001
    26  H    0.005534   0.648366  -0.000149  -0.000169   0.000010   0.000233
    27  H   -0.000000  -0.000149   0.587098  -0.000155  -0.000000   0.000001
    28  H    0.000019  -0.000169  -0.000155   0.560073   0.000001  -0.000032
    29  H   -0.000000   0.000010  -0.000000   0.000001   0.589818  -0.031581
    30  H    0.000001   0.000233   0.000001  -0.000032  -0.031581   0.563664
    31  H   -0.000000   0.000000  -0.000000  -0.000000   0.000002   0.000002
    32  H   -0.000000  -0.000000  -0.000000   0.000000   0.000001  -0.000000
    33  N    0.000038   0.000898  -0.059908  -0.054780  -0.000000  -0.000533
    34  C   -0.000375  -0.043819  -0.031683  -0.000367  -0.000007   0.000283
    35  H   -0.000000  -0.000000  -0.000000   0.000001   0.001365   0.000222
    36  H    0.000001  -0.001275  -0.005354   0.000009   0.000000  -0.000008
    37  C   -0.000001  -0.000004  -0.003166  -0.003253  -0.000000  -0.000028
    38  H    0.000000   0.000003   0.000028  -0.000031   0.000000   0.000036
    39  H   -0.000000  -0.000002   0.003856   0.000147  -0.000000  -0.000000
    40  H   -0.000000  -0.000002   0.000116   0.003663  -0.000000  -0.000004
    41  H   -0.000107  -0.060144  -0.000111  -0.000102  -0.000203  -0.001402
    42  H   -0.000000  -0.000000  -0.000000  -0.000000   0.002208   0.000104
              31         32         33         34         35         36
     1  C    0.000000  -0.000000  -0.000000   0.000000  -0.007181  -0.000000
     2  C    0.000000   0.000000  -0.000000   0.000000  -0.034566  -0.000000
     3  C   -0.000000  -0.000000   0.000001   0.000001   0.004976  -0.000000
     4  C    0.000000   0.000000   0.000083   0.000090   0.000814  -0.000001
     5  C   -0.000000  -0.000000  -0.000168   0.000045   0.000010  -0.000002
     6  C   -0.000000   0.000000   0.003233   0.006048   0.003855  -0.000185
     7  C    0.000000  -0.000000  -0.037507  -0.014439  -0.000207   0.003096
     8  C    0.000000   0.000000  -0.031495   0.312805   0.000001  -0.037188
     9  C    0.000000   0.000000   0.261003   0.666665  -0.000000  -0.032606
    10  C    0.000000   0.000000   0.222934  -0.013243  -0.000004   0.000825
    11  C    0.000001   0.000000   0.000154   0.000083  -0.038212   0.000000
    12  C   -0.000122  -0.000051  -0.000017  -0.000191  -0.006295  -0.000001
    13  C    0.005410   0.002500   0.000017   0.000001   0.004394  -0.000000
    14  C   -0.028277   0.002710   0.000000   0.000000   0.002346   0.000000
    15  C    0.356591  -0.015086  -0.000000   0.000000   0.000023  -0.000000
    16  C   -0.041115   0.364525  -0.000000  -0.000000  -0.000052   0.000000
    17  S    0.005029  -0.025689  -0.000211  -0.000001   0.000083   0.000000
    18  C    0.000001  -0.000000   0.000001   0.000000   0.342424  -0.000000
    19  H   -0.000000   0.000000   0.000000  -0.000000   0.000169   0.000000
    20  H    0.000000   0.000000  -0.000000   0.000000   0.000076  -0.000000
    21  H   -0.000000  -0.000000  -0.000000   0.000000   0.005560   0.000000
    22  H    0.000000  -0.000000  -0.000000  -0.000000  -0.000209   0.000000
    23  H    0.000000   0.000000  -0.000001   0.000002  -0.000000   0.000000
    24  H    0.000000  -0.000000  -0.000141   0.000010  -0.000000  -0.000001
    25  H   -0.000000  -0.000000   0.000038  -0.000375  -0.000000   0.000001
    26  H    0.000000  -0.000000   0.000898  -0.043819  -0.000000  -0.001275
    27  H   -0.000000  -0.000000  -0.059908  -0.031683  -0.000000  -0.005354
    28  H   -0.000000   0.000000  -0.054780  -0.000367   0.000001   0.000009
    29  H    0.000002   0.000001  -0.000000  -0.000007   0.001365   0.000000
    30  H    0.000002  -0.000000  -0.000533   0.000283   0.000222  -0.000008
    31  H    0.568647  -0.001744  -0.000000  -0.000000  -0.000001   0.000000
    32  H   -0.001744   0.513034   0.000000  -0.000000  -0.000000   0.000000
    33  N   -0.000000   0.000000   7.231183  -0.050718  -0.000000   0.004585
    34  C   -0.000000  -0.000000  -0.050718   5.002125  -0.000000   0.357019
    35  H   -0.000001  -0.000000  -0.000000  -0.000000   0.600890   0.000000
    36  H    0.000000   0.000000   0.004585   0.357019   0.000000   0.602773
    37  C   -0.000000   0.000000   0.259420   0.003845   0.000000  -0.000136
    38  H    0.000000  -0.000000  -0.057206   0.000198  -0.000000  -0.000001
    39  H   -0.000000   0.000000  -0.043328   0.000415  -0.000000   0.000000
    40  H   -0.000000   0.000000  -0.043426  -0.000219   0.000000   0.000003
    41  H   -0.000000   0.000000   0.001540  -0.043301   0.000003  -0.000289
    42  H   -0.002043  -0.000125   0.000000  -0.000000   0.000270   0.000000
              37         38         39         40         41         42
     1  C   -0.000000  -0.000000   0.000000   0.000000   0.000000  -0.000000
     2  C    0.000000  -0.000000   0.000000   0.000000  -0.000005  -0.000000
     3  C   -0.000000  -0.000000   0.000000   0.000000   0.000032   0.000000
     4  C   -0.000000   0.000001  -0.000000  -0.000004  -0.000795  -0.000000
     5  C    0.000001  -0.000000   0.000000   0.000000   0.000208  -0.000000
     6  C   -0.000057  -0.000000   0.000002   0.000004  -0.000251  -0.000004
     7  C    0.003931   0.000109  -0.000218   0.000445  -0.048659   0.000000
     8  C    0.000065   0.000016  -0.000000  -0.000003   0.360655   0.000000
     9  C   -0.033298   0.001442  -0.001181   0.002398  -0.000515  -0.000000
    10  C   -0.032487   0.001612   0.002297  -0.000886  -0.000931  -0.000000
    11  C   -0.000004  -0.000002   0.000000   0.000002   0.001842   0.000118
    12  C    0.000005  -0.000006   0.000000   0.000001   0.003134  -0.003960
    13  C    0.000001  -0.000004   0.000000   0.000001   0.000089  -0.047071
    14  C   -0.000000  -0.000000   0.000000   0.000000   0.000000   0.361178
    15  C    0.000000   0.000000  -0.000000  -0.000000  -0.000000  -0.033652
    16  C   -0.000000   0.000000  -0.000000  -0.000000  -0.000000   0.006691
    17  S    0.000057   0.000211   0.000001  -0.000011  -0.000027   0.005376
    18  C   -0.000000   0.000000   0.000000  -0.000000  -0.000146  -0.000009
    19  H   -0.000000   0.000000   0.000000  -0.000000  -0.000000  -0.000000
    20  H    0.000000  -0.000000  -0.000000   0.000000   0.000000   0.000000
    21  H    0.000000   0.000000  -0.000000  -0.000000  -0.000000  -0.000000
    22  H    0.000000   0.000000  -0.000000  -0.000000  -0.000000   0.000000
    23  H    0.000000  -0.000000   0.000000   0.000000   0.000001   0.000000
    24  H   -0.000002  -0.000000  -0.000000   0.000004   0.000013   0.000000
    25  H   -0.000001   0.000000  -0.000000  -0.000000  -0.000107  -0.000000
    26  H   -0.000004   0.000003  -0.000002  -0.000002  -0.060144  -0.000000
    27  H   -0.003166   0.000028   0.003856   0.000116  -0.000111  -0.000000
    28  H   -0.003253  -0.000031   0.000147   0.003663  -0.000102  -0.000000
    29  H   -0.000000   0.000000  -0.000000  -0.000000  -0.000203   0.002208
    30  H   -0.000028   0.000036  -0.000000  -0.000004  -0.001402   0.000104
    31  H   -0.000000   0.000000  -0.000000  -0.000000  -0.000000  -0.002043
    32  H    0.000000  -0.000000   0.000000   0.000000   0.000000  -0.000125
    33  N    0.259420  -0.057206  -0.043328  -0.043426   0.001540   0.000000
    34  C    0.003845   0.000198   0.000415  -0.000219  -0.043301  -0.000000
    35  H    0.000000  -0.000000  -0.000000   0.000000   0.000003   0.000270
    36  H   -0.000136  -0.000001   0.000000   0.000003  -0.000289   0.000000
    37  C    4.917426   0.371666   0.377499   0.379051   0.000021  -0.000000
    38  H    0.371666   0.611604  -0.042328  -0.041987  -0.000012  -0.000000
    39  H    0.377499  -0.042328   0.576595  -0.024065   0.000001  -0.000000
    40  H    0.379051  -0.041987  -0.024065   0.569930   0.000001   0.000000
    41  H    0.000021  -0.000012   0.000001   0.000001   0.657484   0.000000
    42  H   -0.000000  -0.000000  -0.000000   0.000000   0.000000   0.576925
 Mulliken charges:
               1
     1  C   -0.482426
     2  C    0.133704
     3  C   -0.201418
     4  C    0.108919
     5  C   -0.472008
     6  C   -0.086861
     7  C   -0.024831
     8  C   -0.305933
     9  C    0.135866
    10  C    0.120137
    11  C    0.110738
    12  C   -0.385079
    13  C   -0.257206
    14  C   -0.073295
    15  C   -0.047663
    16  C   -0.466863
    17  S    0.390449
    18  C   -0.193356
    19  H    0.153223
    20  H    0.147327
    21  H    0.141831
    22  H    0.112342
    23  H    0.134288
    24  H    0.154734
    25  H    0.152462
    26  H    0.135268
    27  H    0.130641
    28  H    0.153092
    29  H    0.156749
    30  H    0.171201
    31  H    0.137618
    32  H    0.159923
    33  N   -0.605652
    34  C   -0.151272
    35  H    0.119246
    36  H    0.108734
    37  C   -0.240551
    38  H    0.154654
    39  H    0.150310
    40  H    0.154989
    41  H    0.131975
    42  H    0.133995
 Sum of Mulliken charges =  -0.00000
 Mulliken charges with hydrogens summed into heavy atoms:
               1
     1  C   -0.040045
     2  C    0.133704
     3  C   -0.089076
     4  C    0.108919
     5  C   -0.030524
     6  C   -0.086861
     7  C   -0.024831
     8  C   -0.038691
     9  C    0.266507
    10  C    0.273229
    11  C    0.110738
    12  C   -0.057128
    13  C   -0.257206
    14  C    0.060700
    15  C    0.089955
    16  C   -0.306940
    17  S    0.390449
    18  C   -0.074110
    33  N   -0.605652
    34  C   -0.042539
    37  C    0.219403
 Electronic spatial extent (au):  <R**2>=           7123.9538
 Charge=             -0.0000 electrons
 Dipole moment (field-independent basis, Debye):
    X=             -0.2707    Y=             -0.9293    Z=             -0.3056  Tot=              1.0150
 Quadrupole moment (field-independent basis, Debye-Ang):
   XX=           -121.2144   YY=           -124.8440   ZZ=           -128.0149
   XY=              3.7515   XZ=              4.1001   YZ=              2.6751
 Traceless Quadrupole moment (field-independent basis, Debye-Ang):
   XX=              3.4767   YY=             -0.1529   ZZ=             -3.3238
   XY=              3.7515   XZ=              4.1001   YZ=              2.6751
 Octapole moment (field-independent basis, Debye-Ang**2):
  XXX=              6.5037  YYY=              3.3399  ZZZ=             -5.1706  XYY=             -2.1059
  XXY=            -42.5263  XXZ=              5.0290  XZZ=             -0.8225  YZZ=            -12.1883
  YYZ=            -30.0730  XYZ=             -4.7140
 Hexadecapole moment (field-independent basis, Debye-Ang**3):
 XXXX=          -4834.4259 YYYY=          -3802.1347 ZZZZ=           -875.8104 XXXY=             37.8441
 XXXZ=             27.3702 YYYX=             54.9497 YYYZ=             25.2003 ZZZX=             15.1988
 ZZZY=             27.4177 XXYY=          -1313.0650 XXZZ=           -937.5956 YYZZ=           -781.2375
 XXYZ=             37.9808 YYXZ=             -7.3181 ZZXY=             -9.8685
 N-N= 1.735479652779D+03 E-N=-6.252512459015D+03  KE= 1.184072900656D+03
 Unable to Open any file for archive entry.
 1\1\GINC-N2\SP\RB3LYP TD-FC\6-31G\C19H21N1S1\HPCMGAC13\13-Jun-2025\0\\
 # td=(50-50,nstates=3) b3lyp/6-31g\\[No Title]\\0,1\C,0,2.806011,3.955
 055,-0.32947\C,0,1.641765,3.003166,-0.160979\C,0,0.368414,3.332946,-0.
 654224\C,0,-0.722555,2.466444,-0.525441\C,0,-2.067094,2.868791,-1.0954
 72\C,0,-0.549885,1.212183,0.12112\C,0,-1.721703,0.294847,0.295603\C,0,
 -2.600244,0.496235,1.531443\C,0,-3.938084,-1.408487,0.579615\C,0,-1.99
 5267,-0.666421,-0.614458\C,0,0.725794,0.875314,0.626022\C,0,0.973646,-
 0.443645,1.357588\C,0,1.993311,-1.340255,0.713028\C,0,3.193415,-1.7738
 76,1.204625\C,0,3.925804,-2.647801,0.325755\C,0,3.293056,-2.895018,-0.
 855339\S,0,1.710359,-2.034739,-0.949488\C,0,1.798797,1.769412,0.474894
 \H,0,3.095334,4.049792,-1.384515\H,0,2.556681,4.962,0.027396\H,0,3.685
 229,3.610578,0.224149\H,0,0.224117,4.287647,-1.154911\H,0,-2.014562,3.
 863551,-1.548981\H,0,-2.406639,2.162978,-1.862114\H,0,-2.847051,2.8933
 09,-0.324747\H,0,-2.97353,1.536173,1.566203\H,0,-4.768494,-2.105799,0.
 601642\H,0,-1.364154,-0.810982,-1.484977\H,0,1.333856,-0.230138,2.3737
 34\H,0,0.024006,-0.978414,1.463406\H,0,4.891601,-3.069564,0.577598\H,0
 ,3.611625,-3.502861,-1.687589\N,0,-3.092537,-1.531753,-0.530548\C,0,-3
 .752142,-0.48801,1.543354\H,0,2.776578,1.485242,0.855616\H,0,-4.463523
 ,-0.435416,2.361386\C,0,-3.197623,-2.681159,-1.424306\H,0,-2.630862,-3
 .552708,-1.063761\H,0,-4.247599,-2.970657,-1.529349\H,0,-2.820294,-2.4
 13223,-2.415647\H,0,-1.987305,0.398484,2.447047\H,0,3.554487,-1.48023,
 2.18392\\Version=ES64L-G16RevC.02\State=1-A\HF=-1189.3480039\RMSD=3.94
 2e-09\PG=C01 [X(C19H21N1S1)]\\@
 The archive entry for this job was punched.


 ANYONE WHO IS NOT SHOCKED BY QUANTUM THEORY HAS
 NOT UNDERSTOOD IT. -- NIELS BOHR(1885-1962)
 Job cpu time:       0 days  0 hours 30 minutes 28.3 seconds.
 Elapsed time:       0 days  0 hours  1 minutes 57.7 seconds.
 File lengths (MBytes):  RWF=    531 Int=      0 D2E=      0 Chk=     18 Scr=      2
 Normal termination of Gaussian 16 at Fri Jun 13 11:31:31 2025.
