 Entering Gaussian System, Link 0=g16
 Input=M1852.gjf
 Output=M1852.log
 Initial command:
 /hpc/softwares/Gaussian/g16/l1.exe "/hpc/home/hpcmgac13/pbs.11124.admin1.x8z/Gau-186808.inp" -scrdir="/hpc/home/hpcmgac13/pbs.11124.admin1.x8z/"
 Default linda workers: n2
 Default is to use  16 SMP processors on each worker.
 Entering Link 1 = /hpc/softwares/Gaussian/g16/l1.exe PID=    186809.
  
 Copyright (c) 1988-2021, Gaussian, Inc.  All Rights Reserved.
  
 This is part of the Gaussian(R) 16 program.  It is based on
 the Gaussian(R) 09 system (copyright 2009, Gaussian, Inc.),
 the Gaussian(R) 03 system (copyright 2003, Gaussian, Inc.),
 the Gaussian(R) 98 system (copyright 1998, Gaussian, Inc.),
 the Gaussian(R) 94 system (copyright 1995, Gaussian, Inc.),
 the Gaussian 92(TM) system (copyright 1992, Gaussian, Inc.),
 the Gaussian 90(TM) system (copyright 1990, Gaussian, Inc.),
 the Gaussian 88(TM) system (copyright 1988, Gaussian, Inc.),
 the Gaussian 86(TM) system (copyright 1986, Carnegie Mellon
 University), and the Gaussian 82(TM) system (copyright 1983,
 Carnegie Mellon University). Gaussian is a federally registered
 trademark of Gaussian, Inc.
  
 This software contains proprietary and confidential information,
 including trade secrets, belonging to Gaussian, Inc.
  
 This software is provided under written license and may be
 used, copied, transmitted, or stored only in accord with that
 written license.
  
 The following legend is applicable only to US Government
 contracts under FAR:
  
                    RESTRICTED RIGHTS LEGEND
  
 Use, reproduction and disclosure by the US Government is
 subject to restrictions as set forth in subparagraphs (a)
 and (c) of the Commercial Computer Software - Restricted
 Rights clause in FAR 52.227-19.
  
 Gaussian, Inc.
 340 Quinnipiac St., Bldg. 40, Wallingford CT 06492
  
  
 ---------------------------------------------------------------
 Warning -- This program may not be used in any manner that
 competes with the business of Gaussian, Inc. or will provide
 assistance to any competitor of Gaussian, Inc.  The licensee
 of this program is prohibited from giving any competitor of
 Gaussian, Inc. access to this program.  By using this program,
 the user acknowledges that Gaussian, Inc. is engaged in the
 business of creating and licensing software in the field of
 computational chemistry and represents and warrants to the
 licensee that it is not a competitor of Gaussian, Inc. and that
 it will not use this program in any manner prohibited above.
 ---------------------------------------------------------------
  

 Cite this work as:
 Gaussian 16, Revision C.02,
 M. J. Frisch, G. W. Trucks, H. B. Schlegel, G. E. Scuseria, 
 M. A. Robb, J. R. Cheeseman, G. Scalmani, V. Barone, 
 G. A. Petersson, H. Nakatsuji, X. Li, M. Caricato, A. V. Marenich, 
 J. Bloino, B. G. Janesko, R. Gomperts, B. Mennucci, H. P. Hratchian, 
 J. V. Ortiz, A. F. Izmaylov, J. L. Sonnenberg, D. Williams-Young, 
 F. Ding, F. Lipparini, F. Egidi, J. Goings, B. Peng, A. Petrone, 
 T. Henderson, D. Ranasinghe, V. G. Zakrzewski, J. Gao, N. Rega, 
 G. Zheng, W. Liang, M. Hada, M. Ehara, K. Toyota, R. Fukuda, 
 J. Hasegawa, M. Ishida, T. Nakajima, Y. Honda, O. Kitao, H. Nakai, 
 T. Vreven, K. Throssell, J. A. Montgomery, Jr., J. E. Peralta, 
 F. Ogliaro, M. J. Bearpark, J. J. Heyd, E. N. Brothers, K. N. Kudin, 
 V. N. Staroverov, T. A. Keith, R. Kobayashi, J. Normand, 
 K. Raghavachari, A. P. Rendell, J. C. Burant, S. S. Iyengar, 
 J. Tomasi, M. Cossi, J. M. Millam, M. Klene, C. Adamo, R. Cammi, 
 J. W. Ochterski, R. L. Martin, K. Morokuma, O. Farkas, 
 J. B. Foresman, and D. J. Fox, Gaussian, Inc., Wallingford CT, 2019.
 
 ******************************************
 Gaussian 16:  ES64L-G16RevC.02  7-Dec-2021
                13-Jun-2025 
 ******************************************
 SetLPE:    new flags="-opt 'Tsnet.Node.lindarsharg: ssh'  -nodelist 'n2.head.cm.mguif.local' -env GAUSS_MDEF=4294967296 -env GAUSS_EXEDIR="/hpc/softwares/Gaussian/g16/bsd:/hpc/softwares/Gaussian/g16""
 Will use up to    1 processors via Linda.
 ----------------------------------
 # td=(50-50,nstates=3) b3lyp/6-31g
 ----------------------------------
 1/38=1,172=1/1;
 2/12=2,17=6,18=5,40=1/2;
 3/5=1,6=6,11=9,25=1,30=1,74=-5/1,2,3,8;
 4//1;
 5/5=2,38=5/2;
 8/6=1,10=2,108=3/1;
 9/41=3,42=1,48=2,70=2/14;
 6/7=2,8=2,9=2,10=2/1;
 99/5=1,9=1/99;
 ----------
 [No Title]
 ----------
 Symbolic Z-matrix:
 Charge =  0 Multiplicity = 1
 C                     4.51766  -1.902     0.10701 
 C                     3.04646  -1.55833   0.01772 
 C                     2.06528  -2.49962   0.35858 
 C                     0.69888  -2.20227   0.27635 
 C                    -0.31285  -3.27604   0.62491 
 C                     0.28325  -0.90885  -0.13772 
 C                    -1.17923  -0.64086  -0.33164 
 C                    -1.98594  -0.30748   0.69819 
 N                    -3.35746  -0.04933   0.56676 
 C                    -4.20164   0.09878   1.74703 
 C                    -3.92208  -0.14867  -0.71126 
 C                    -3.20917  -0.48706  -1.80113 
 C                    -1.73292  -0.82349  -1.74714 
 C                     1.26419   0.06354  -0.46281 
 C                     0.88644   1.46534  -0.92023 
 C                     1.06854   2.64804   0.10051 
 C                     0.53672   3.92854  -0.58955 
 C                     0.25961   2.39727   1.39204 
 C                     2.55391   2.86562   0.46936 
 C                     2.62435  -0.29084  -0.39765 
 H                     4.70738  -2.93727  -0.19856 
 H                     5.12034  -1.24578  -0.52985 
 H                     4.89225  -1.79428   1.13443 
 H                     2.36923  -3.49466   0.67524 
 H                     0.1848   -4.23789   0.78523 
 H                    -0.86923  -3.03099   1.53763 
 H                    -1.05721  -3.40738  -0.16873 
 H                    -1.59741  -0.19764   1.70473 
 H                    -3.64208   0.6028    2.54097 
 H                    -5.07135   0.71687   1.50355 
 H                    -4.56224  -0.86526   2.13761 
 H                    -4.97988   0.08556  -0.76368 
 H                    -3.70733  -0.51421  -2.76508 
 H                    -1.54855  -1.85851  -2.09225 
 H                    -1.16317  -0.1969   -2.45633 
 H                     1.482     1.71769  -1.8099 
 H                     0.63703   4.79688   0.07339 
 H                     1.09474   4.14096  -1.5104 
 H                    -0.52323   3.82303  -0.85184 
 H                     0.3827    3.23731   2.08759 
 H                     0.59783   1.48583   1.89782 
 H                    -0.80805   2.28938   1.17218 
 H                     3.16668   3.029    -0.42673 
 H                     2.65682   3.75023   1.1106 
 H                     2.96329   2.00859   1.01327 
 H                     3.3719    0.43899  -0.69413 
 H                    -0.16382   1.47338  -1.22953 
 
                          Input orientation:                          
 ---------------------------------------------------------------------
 Center     Atomic      Atomic             Coordinates (Angstroms)
 Number     Number       Type             X           Y           Z
 ---------------------------------------------------------------------
      1          6           0        4.517657   -1.902000    0.107013
      2          6           0        3.046457   -1.558330    0.017723
      3          6           0        2.065280   -2.499615    0.358581
      4          6           0        0.698881   -2.202271    0.276349
      5          6           0       -0.312850   -3.276043    0.624907
      6          6           0        0.283245   -0.908851   -0.137719
      7          6           0       -1.179225   -0.640859   -0.331639
      8          6           0       -1.985936   -0.307478    0.698187
      9          7           0       -3.357460   -0.049334    0.566764
     10          6           0       -4.201642    0.098782    1.747030
     11          6           0       -3.922075   -0.148673   -0.711262
     12          6           0       -3.209165   -0.487064   -1.801128
     13          6           0       -1.732923   -0.823491   -1.747140
     14          6           0        1.264188    0.063537   -0.462806
     15          6           0        0.886439    1.465338   -0.920233
     16          6           0        1.068536    2.648035    0.100512
     17          6           0        0.536718    3.928537   -0.589548
     18          6           0        0.259607    2.397268    1.392036
     19          6           0        2.553914    2.865616    0.469355
     20          6           0        2.624353   -0.290836   -0.397651
     21          1           0        4.707384   -2.937273   -0.198558
     22          1           0        5.120343   -1.245781   -0.529849
     23          1           0        4.892250   -1.794281    1.134431
     24          1           0        2.369228   -3.494661    0.675242
     25          1           0        0.184798   -4.237886    0.785225
     26          1           0       -0.869231   -3.030986    1.537629
     27          1           0       -1.057208   -3.407377   -0.168734
     28          1           0       -1.597408   -0.197644    1.704732
     29          1           0       -3.642075    0.602795    2.540967
     30          1           0       -5.071348    0.716866    1.503551
     31          1           0       -4.562238   -0.865258    2.137605
     32          1           0       -4.979884    0.085559   -0.763682
     33          1           0       -3.707327   -0.514212   -2.765081
     34          1           0       -1.548547   -1.858510   -2.092245
     35          1           0       -1.163173   -0.196897   -2.456332
     36          1           0        1.482002    1.717687   -1.809898
     37          1           0        0.637031    4.796876    0.073387
     38          1           0        1.094739    4.140959   -1.510396
     39          1           0       -0.523234    3.823031   -0.851839
     40          1           0        0.382703    3.237314    2.087593
     41          1           0        0.597830    1.485826    1.897821
     42          1           0       -0.808049    2.289377    1.172182
     43          1           0        3.166677    3.028996   -0.426726
     44          1           0        2.656820    3.750231    1.110603
     45          1           0        2.963287    2.008593    1.013269
     46          1           0        3.371901    0.438986   -0.694125
     47          1           0       -0.163821    1.473384   -1.229529
 ---------------------------------------------------------------------
                    Distance matrix (angstroms):
                    1          2          3          4          5
     1  C    0.000000
     2  C    1.513443   0.000000
     3  C    2.536648   1.401752   0.000000
     4  C    3.834304   2.447991   1.400793   0.000000
     5  C    5.048763   3.821538   2.515804   1.515941   0.000000
     6  C    4.356201   2.842767   2.439773   1.420261   2.557445
     7  C    5.851270   4.338225   3.802393   2.516930   2.934243
     8  C    6.722255   5.229975   4.618782   3.313070   3.408367
     9  N    8.103160   6.602171   5.954270   4.601454   4.436742
    10  C    9.094996   7.633575   6.924866   5.610069   5.269849
    11  C    8.658684   7.146957   6.520729   5.152269   4.959062
    12  C    8.083738   6.602169   6.044375   4.746648   4.696029
    13  C    6.608390   5.147543   4.655083   3.450973   3.695704
    14  C    3.843578   2.457202   2.808233   2.449451   3.850060
    15  C    5.057662   3.832494   4.329652   3.862427   5.128981
    16  C    5.709579   4.648928   5.249609   4.867549   6.105564
    17  C    7.094240   6.064097   6.675072   6.193778   7.355450
    18  C    6.185950   5.030112   5.320521   4.753260   5.753490
    19  C    5.168921   4.474133   5.388575   5.400174   6.779565
    20  C    2.536757   1.399017   2.400657   2.795586   4.310945
    21  H    1.095975   2.169548   2.735445   4.102909   5.098589
    22  H    1.095193   2.167608   3.419769   4.595014   5.913967
    23  H    1.098868   2.170175   3.015161   4.299663   5.435835
    24  H    2.734081   2.154147   1.087555   2.149290   2.691444
    25  H    4.968904   3.994768   2.596117   2.160316   1.094759
    26  H    5.686812   4.451005   3.206846   2.176366   1.096665
    27  H    5.781117   4.504865   3.294241   2.175828   1.095985
    28  H    6.546110   5.124739   4.530615   3.366267   3.506088
    29  H    8.875774   7.468178   6.852858   5.642764   5.458975
    30  H   10.037818   8.560547   7.911268   6.582016   6.273647
    31  H    9.361764   7.928839   7.054080   5.738576   5.114434
    32  H    9.742268   8.230135   7.587947   6.210008   5.916904
    33  H    8.821862   7.378874   6.857265   5.613778   5.535540
    34  H    6.452709   5.065189   4.413310   3.283191   3.304431
    35  H    6.461420   5.069066   4.863040   3.867340   4.438268
    36  H    5.098224   4.064481   4.777881   4.509077   5.838417
    37  H    7.741791   6.796843   7.440431   7.002362   8.147298
    38  H    7.130900   6.215002   6.966509   6.601949   7.845556
    39  H    7.688040   6.515971   6.938399   6.250651   7.254095
    40  H    6.887169   5.863288   6.223576   5.741921   6.711711
    41  H    5.481733   4.335600   4.517345   4.030067   5.012489
    42  H    6.860421   5.567301   5.643794   4.821645   5.614146
    43  H    5.140501   4.610374   5.691689   5.826705   7.277813
    44  H    6.034702   5.433877   6.322660   6.321533   7.643518
    45  H    4.304661   3.704183   4.643164   4.837557   6.229870
    46  H    2.726682   2.145207   3.383907   3.881120   5.396172
    47  H    5.924171   4.588334   4.824490   4.064771   5.100804
                    6          7          8          9         10
     6  C    0.000000
     7  C    1.499414   0.000000
     8  C    2.491901   1.349988   0.000000
     9  N    3.806547   2.429349   1.401780   0.000000
    10  C    4.968080   3.742050   2.484848   1.458633   0.000000
    11  C    4.311791   2.812399   2.400083   1.400717   2.486482
    12  C    3.891242   2.510718   2.788389   2.412574   3.730637
    13  C    2.581173   1.530875   2.511953   2.931312   4.376572
    14  C    1.418968   2.546300   3.471147   4.736284   5.895754
    15  C    2.571565   3.008235   3.743354   4.745110   5.905111
    16  C    3.650325   4.006995   4.292094   5.204098   6.081487
    17  C    4.865051   4.887776   5.095671   5.685520   6.525234
    18  C    3.642956   3.777765   3.583230   4.444109   5.031084
    19  C    4.446468   5.183945   5.543566   6.591719   7.411165
    20  C    2.435219   3.820220   4.738766   6.063869   7.165589
    21  H    4.867361   6.320079   7.247103   8.600443   9.611123
    22  H    4.864648   6.331649   7.272392   8.631755   9.689759
    23  H    4.862641   6.351579   7.050556   8.451319   9.309019
    24  H    3.420328   4.663637   5.396862   6.684086   7.565573
    25  H    3.456008   4.005814   4.490854   5.489926   6.242805
    26  H    2.939124   3.050076   3.060913   4.003013   4.576490
    27  H    2.835561   2.773995   3.350144   4.136251   5.084365
    28  H    2.727141   2.125588   1.084505   2.101131   2.621391
    29  H    4.986840   3.982985   2.639551   2.098513   1.094294
    30  H    5.831671   4.512201   3.349277   2.098105   1.094394
    31  H    5.353289   4.194317   3.003394   2.141206   1.100887
    32  H    5.392699   3.893501   3.354887   2.102509   2.628595
    33  H    4.794104   3.511265   3.873003   3.382264   4.580312
    34  H    2.842092   2.172281   3.222347   3.689934   5.060626
    35  H    2.823999   2.170641   3.261925   3.738419   5.194995
    36  H    3.336451   3.850989   4.734805   5.673736   6.897565
    37  H    5.720581   5.747329   5.772760   6.299614   6.948807
    38  H    5.295597   5.424589   5.844398   6.457184   7.416311
    39  H    4.852946   4.541723   4.647922   5.004047   5.844214
    40  H    4.706654   4.830376   4.484022   5.206131   5.566200
    41  H    3.158618   3.556853   3.366141   4.446656   4.998156
    42  H    3.624283   3.314443   2.890631   3.512207   4.079906
    43  H    4.889207   5.688914   6.240746   7.281998   8.222134
    44  H    5.375799   6.006411   6.179828   7.134705   7.795936
    45  H    4.125394   5.097919   5.473415   6.662302   7.451308
    46  H    3.415560   4.691504   5.585889   6.863862   7.964517
    47  H    2.658376   2.511429   3.194943   3.967955   5.201291
                   11         12         13         14         15
    11  C    0.000000
    12  C    1.345569   0.000000
    13  C    2.514122   1.515054   0.000000
    14  C    5.196546   4.701612   3.379202   0.000000
    15  C    5.076466   4.621885   3.575412   1.522163   0.000000
    16  C    5.778127   5.634164   4.828404   2.652402   1.572848
    17  C    6.043119   5.915834   5.391944   3.934908   2.509782
    18  C    5.328428   5.527029   4.919135   3.145778   2.570603
    19  C    7.240043   7.043340   6.074482   3.222416   2.583061
    20  C    6.555477   6.003181   4.592461   1.407080   2.525388
    21  H    9.083321   8.440587   6.952966   4.574963   5.873961
    22  H    9.110537   8.460054   6.973334   4.072928   5.042669
    23  H    9.154613   8.715460   7.289637   4.377841   5.558173
    24  H    7.259375   6.804154   5.461751   3.895772   5.417176
    25  H    5.985611   5.681274   4.663542   4.607049   5.993968
    26  H    4.762887   4.805635   4.050766   4.257850   5.416677
    27  H    4.372751   3.977921   3.102325   4.186001   5.299610
    28  H    3.353133   3.869442   3.510765   3.599329   3.978121
    29  H    3.349641   4.497665   4.905814   5.777964   5.764662
    30  H    2.641095   3.979708   4.907624   6.665764   6.475351
    31  H    3.006551   4.181800   4.806039   6.447638   6.668593
    32  H    1.084699   2.130642   3.512309   6.251356   6.028436
    33  H    2.097119   1.085407   2.242795   5.509104   5.331488
    34  H    3.234856   2.173307   1.106506   3.776349   4.283776
    35  H    3.264833   2.167850   1.104621   3.151833   3.053446
    36  H    5.821885   5.183440   4.098447   2.144368   1.099945
    37  H    6.771970   6.799048   6.365495   4.804719   3.485489
    38  H    6.648908   6.326667   5.718171   4.213256   2.747841
    39  H    5.229370   5.166459   4.884166   4.180911   2.747830
    40  H    6.150578   6.472608   5.972536   4.165863   3.527133
    41  H    5.468861   5.662838   4.904192   2.835401   2.832868
    42  H    4.380480   4.723828   4.366667   3.452784   2.815765
    43  H    7.773606   7.409657   6.371125   3.523452   2.808569
    44  H    7.861457   7.800168   6.953810   4.243436   3.532602
    45  H    7.418626   7.228298   6.139621   2.974723   2.889092
    46  H    7.317631   6.737466   5.363014   2.153352   2.698526
    47  H    4.126032   3.666634   2.829423   2.148195   1.094886
                   16         17         18         19         20
    16  C    0.000000
    17  C    1.548773   0.000000
    18  C    1.544437   2.519573   0.000000
    19  C    1.545877   2.513992   2.516850   0.000000
    20  C    3.362394   4.711492   4.002612   3.274118   0.000000
    21  H    6.672805   8.042803   7.125310   6.225517   3.373764
    22  H    5.654759   6.912796   6.371201   4.948591   2.675698
    23  H    5.951802   7.395499   6.252745   5.255928   3.122656
    24  H    6.305143   7.749945   6.299137   6.366288   3.388316
    25  H    6.976083   8.288806   6.663264   7.494813   4.788510
    26  H    6.170213   7.411918   5.546297   6.901380   4.843435
    27  H    6.423340   7.518864   6.153366   7.266210   4.828988
    28  H    4.216476   5.181079   3.206221   5.305016   4.717199
    29  H    5.685832   6.190557   4.445593   6.913915   6.978694
    30  H    6.587572   6.793107   5.590641   7.989450   7.990860
    31  H    6.942521   7.511137   5.869424   8.206223   7.642289
    32  H    6.625443   6.725452   6.119100   8.124482   7.622340
    33  H    6.404709   6.517889   6.441654   7.815878   6.763490
    34  H    5.653871   6.332167   5.789757   6.760869   4.768893
    35  H    4.428500   4.836705   4.854269   5.635190   4.311884
    36  H    2.164756   2.696419   3.494061   2.767983   2.708057
    37  H    2.191906   1.097068   2.763947   2.749727   5.482348
    38  H    2.196482   1.097484   3.487408   2.770398   4.818581
    39  H    2.195750   1.097008   2.771392   3.482964   5.199759
    40  H    2.183142   2.769223   1.097556   2.733315   4.863052
    41  H    2.191487   3.486772   1.095874   2.787580   3.540129
    42  H    2.190590   2.756617   1.095384   3.482644   4.572008
    43  H    2.196658   2.784308   3.486837   1.097785   3.363963
    44  H    2.181230   2.723442   2.767010   1.097421   4.313480
    45  H    2.198202   3.484745   2.757611   1.094494   2.718997
    46  H    3.288896   4.497351   4.227684   2.812707   1.085986
    47  H    2.160444   2.632130   2.811664   3.494367   3.402706
                   21         22         23         24         25
    21  H    0.000000
    22  H    1.772409   0.000000
    23  H    1.765635   1.767118   0.000000
    24  H    2.557573   3.752111   3.076977   0.000000
    25  H    4.807620   5.919604   5.315379   2.310025   0.000000
    26  H    5.841384   6.583040   5.906494   3.383241   1.770225
    27  H    5.783806   6.554772   6.300505   3.529926   1.772671
    28  H    7.132915   7.156823   6.707470   5.259693   4.510577
    29  H    9.473676   9.467160   8.975468   7.510382   6.415589
    30  H   10.577027  10.576259  10.281799   8.589833   7.258969
    31  H    9.781452  10.050497   9.552842   7.556288   5.978119
    32  H   10.163663  10.190276  10.227202   8.300477   6.911239
    33  H    9.125000   9.135601   9.528772   7.592326   6.451283
    34  H    6.624685   6.876817   7.204126   5.068031   4.116521
    35  H    6.860805   6.655379   7.218959   5.758460   5.352972
    36  H    5.887967   4.863969   5.712511   5.842231   6.624670
    37  H    8.744072   7.548356   7.916821   8.491897   9.074037
    38  H    8.054408   6.795876   7.526173   8.043881   8.735154
    39  H    8.572506   7.592529   8.051517   8.015418   8.255887
    40  H    7.877492   7.028113   6.823597   7.159644   7.590385
    41  H    6.391169   5.814498   5.457464   5.425661   5.845455
    42  H    7.721192   7.109155   7.012211   6.617940   6.613671
    43  H    6.166215   4.701187   5.355260   6.663960   7.947830
    44  H    7.116279   5.806907   5.978238   7.263657   8.368200
    45  H    5.382563   4.198220   4.265844   5.545536   6.840359
    46  H    3.664454   2.433614   3.262294   4.284168   5.849721
    47  H    6.651724   5.983795   6.467596   5.892874   6.066249
                   26         27         28         29         30
    26  H    0.000000
    27  H    1.757464   0.000000
    28  H    2.930186   3.755539   0.000000
    29  H    4.679713   5.486848   2.349607   0.000000
    30  H    5.630750   5.993266   3.597925   1.769764   0.000000
    31  H    4.323037   4.905793   3.069740   1.778927   1.778857
    32  H    5.648571   5.286015   4.196953   3.602495   2.355262
    33  H    5.736049   4.704737   4.952898   5.422740   4.647292
    34  H    3.874552   2.517995   4.144623   5.648676   5.654418
    35  H    4.906138   3.943541   4.183660   5.635376   5.638215
    36  H    6.267705   5.950402   5.050137   6.813896   7.411274
    37  H    8.104829   8.380861   5.709574   6.479970   7.160827
    38  H    8.036444   7.962933   6.033919   7.167256   7.670001
    39  H    7.266830   7.282208   4.884233   5.622119   5.990114
    40  H    6.415714   7.163538   3.983260   4.831674   6.036591
    41  H    4.762730   5.563563   2.773161   4.378376   5.734660
    42  H    5.333250   5.857742   2.663075   3.570691   4.556129
    43  H    7.541262   7.702900   6.136027   7.813626   8.771372
    44  H    7.655083   8.164684   5.834138   7.185289   8.311455
    45  H    6.352992   6.847937   5.113271   6.923939   8.152564
    46  H    5.916809   5.889614   5.554624   7.725834   8.729001
    47  H    5.333303   5.073978   3.668432   5.203154   5.667969
                   31         32         33         34         35
    31  H    0.000000
    32  H    3.081550   0.000000
    33  H    4.989032   2.446370   0.000000
    34  H    5.287770   4.161557   2.630623   0.000000
    35  H    5.753660   4.184749   2.582389   1.744142   0.000000
    36  H    7.667283   6.746435   5.729126   4.696076   3.328732
    37  H    7.959470   7.378816   7.425497   7.332181   5.880305
    38  H    8.388773   7.341995   6.804755   6.581728   4.980959
    39  H    6.872436   5.817061   5.710571   5.905064   4.375356
    40  H    6.425421   6.842563   7.372295   6.867910   5.901762
    41  H    5.675508   6.336816   6.654110   5.631354   4.989122
    42  H    4.997769   5.099862   5.636308   5.330083   4.412911
    43  H    9.026469   8.668553   8.079242   6.992496   5.768300
    44  H    8.629732   8.675368   8.585381   7.707225   6.549442
    45  H    8.133676   8.363587   8.070785   6.704875   5.824945
    46  H    8.524688   8.359549   7.437265   5.607498   4.906793
    47  H    6.012729   5.033640   4.343373   3.709887   2.300780
                   36         37         38         39         40
    36  H    0.000000
    37  H    3.707040   0.000000
    38  H    2.472230   1.774286   0.000000
    39  H    3.061261   1.775002   1.775560   0.000000
    40  H    4.325293   2.560067   3.777445   3.131141   0.000000
    41  H    3.818730   3.780628   4.348861   3.778881   1.774825
    42  H    3.803152   3.095668   3.774279   2.555362   1.776078
    43  H    2.543782   3.126439   2.589156   3.798244   3.757088
    44  H    3.747100   2.500166   3.076102   3.737542   2.527687
    45  H    3.201422   3.750916   3.795700   4.350476   3.053415
    46  H    2.540028   5.201903   4.422258   5.162239   4.950141
    47  H    1.762171   3.658491   2.962907   2.406796   3.796503
                   41         42         43         44         45
    41  H    0.000000
    42  H    1.774469   0.000000
    43  H    3.792607   4.347642   0.000000
    44  H    3.160171   3.760745   1.772996   0.000000
    45  H    2.578974   3.785111   1.776563   1.771073   0.000000
    46  H    3.938214   4.937513   2.611852   3.838324   2.354958
    47  H    3.218786   2.617077   3.762531   4.314657   3.885279
                   46         47
    46  H    0.000000
    47  H    3.722629   0.000000
 Stoichiometry    C19H27N
 Framework group  C1[X(C19H27N)]
 Deg. of freedom   135
 Full point group                 C1      NOp   1
 Largest Abelian subgroup         C1      NOp   1
 Largest concise Abelian subgroup C1      NOp   1
                         Standard orientation:                         
 ---------------------------------------------------------------------
 Center     Atomic      Atomic             Coordinates (Angstroms)
 Number     Number       Type             X           Y           Z
 ---------------------------------------------------------------------
      1          6           0       -4.517657   -1.902000   -0.107013
      2          6           0       -3.046457   -1.558330   -0.017723
      3          6           0       -2.065280   -2.499615   -0.358581
      4          6           0       -0.698881   -2.202271   -0.276349
      5          6           0        0.312850   -3.276043   -0.624907
      6          6           0       -0.283245   -0.908851    0.137719
      7          6           0        1.179225   -0.640859    0.331639
      8          6           0        1.985936   -0.307478   -0.698187
      9          7           0        3.357460   -0.049334   -0.566764
     10          6           0        4.201642    0.098782   -1.747030
     11          6           0        3.922075   -0.148673    0.711262
     12          6           0        3.209165   -0.487064    1.801128
     13          6           0        1.732923   -0.823491    1.747140
     14          6           0       -1.264188    0.063537    0.462806
     15          6           0       -0.886439    1.465338    0.920233
     16          6           0       -1.068536    2.648035   -0.100512
     17          6           0       -0.536718    3.928537    0.589548
     18          6           0       -0.259607    2.397268   -1.392036
     19          6           0       -2.553914    2.865616   -0.469355
     20          6           0       -2.624353   -0.290836    0.397651
     21          1           0       -4.707384   -2.937273    0.198558
     22          1           0       -5.120343   -1.245781    0.529849
     23          1           0       -4.892250   -1.794281   -1.134431
     24          1           0       -2.369228   -3.494661   -0.675242
     25          1           0       -0.184798   -4.237886   -0.785225
     26          1           0        0.869231   -3.030986   -1.537629
     27          1           0        1.057208   -3.407377    0.168734
     28          1           0        1.597408   -0.197644   -1.704732
     29          1           0        3.642075    0.602795   -2.540967
     30          1           0        5.071348    0.716866   -1.503551
     31          1           0        4.562238   -0.865258   -2.137605
     32          1           0        4.979884    0.085559    0.763682
     33          1           0        3.707327   -0.514212    2.765081
     34          1           0        1.548547   -1.858510    2.092245
     35          1           0        1.163173   -0.196897    2.456332
     36          1           0       -1.482002    1.717687    1.809898
     37          1           0       -0.637031    4.796876   -0.073387
     38          1           0       -1.094739    4.140959    1.510396
     39          1           0        0.523234    3.823031    0.851839
     40          1           0       -0.382703    3.237314   -2.087593
     41          1           0       -0.597830    1.485826   -1.897821
     42          1           0        0.808049    2.289377   -1.172182
     43          1           0       -3.166677    3.028996    0.426726
     44          1           0       -2.656820    3.750231   -1.110603
     45          1           0       -2.963287    2.008593   -1.013269
     46          1           0       -3.371901    0.438986    0.694125
     47          1           0        0.163821    1.473384    1.229529
 ---------------------------------------------------------------------
 Rotational constants (GHZ):           0.4061847           0.2699294           0.1920654
 Standard basis: 6-31G (6D, 7F)
 There are   234 symmetry adapted cartesian basis functions of A   symmetry.
 There are   234 symmetry adapted basis functions of A   symmetry.
   234 basis functions,   548 primitive gaussians,   234 cartesian basis functions
    74 alpha electrons       74 beta electrons
       nuclear repulsion energy      1586.6382622712 Hartrees.
 NAtoms=   47 NActive=   47 NUniq=   47 SFac= 1.00D+00 NAtFMM=   60 NAOKFM=F Big=F
 Integral buffers will be    131072 words long.
 Regular integral format.
 Two-electron integral symmetry is turned on.
 One-electron integrals computed using PRISM.
 NBasis=   234 RedAO= T EigKep=  4.29D-04  NBF=   234
 NBsUse=   234 1.00D-06 EigRej= -1.00D+00 NBFU=   234
 ExpMin= 1.61D-01 ExpMax= 4.17D+03 ExpMxC= 6.27D+02 IAcc=3 IRadAn=         5 AccDes= 0.00D+00
 Harris functional with IExCor=  402 and IRadAn=       5 diagonalized for initial guess.
 HarFok:  IExCor=  402 AccDes= 0.00D+00 IRadAn=         5 IDoV= 1 UseB2=F ITyADJ=14
 ICtDFT=  3500011 ScaDFX=  1.000000  1.000000  1.000000  1.000000
 FoFCou: FMM=F IPFlag=           0 FMFlag=      100000 FMFlg1=           0
         NFxFlg=           0 DoJE=T BraDBF=F KetDBF=T FulRan=T
         wScrn=  0.000000 ICntrl=       500 IOpCl=  0 I1Cent=   200000004 NGrid=           0
         NMat0=    1 NMatS0=      1 NMatT0=    0 NMatD0=    1 NMtDS0=    0 NMtDT0=    0
 Petite list used in FoFCou.
 Requested convergence on RMS density matrix=1.00D-08 within 128 cycles.
 Requested convergence on MAX density matrix=1.00D-06.
 Requested convergence on             energy=1.00D-06.
 No special actions if energy rises.
 Integral accuracy reduced to 1.0D-05 until final iterations.
 Initial convergence to 1.0D-05 achieved.  Increase integral accuracy.
 SCF Done:  E(RB3LYP) =  -794.828045292     A.U. after   15 cycles
            NFock= 15  Conv=0.73D-08     -V/T= 2.0058
 DoSCS=F DFT=T ScalE2(SS,OS)=  1.000000  1.000000
 ExpMin= 1.61D-01 ExpMax= 4.17D+03 ExpMxC= 6.27D+02 IAcc=3 IRadAn=         5 AccDes= 0.00D+00
 HarFok:  IExCor=  205 AccDes= 0.00D+00 IRadAn=         5 IDoV=-2 UseB2=F ITyADJ=14
 ICtDFT= 12500011 ScaDFX=  1.000000  1.000000  1.000000  1.000000
 Range of M.O.s used for correlation:    21   234
 NBasis=   234 NAE=    74 NBE=    74 NFC=    20 NFV=     0
 NROrb=    214 NOA=    54 NOB=    54 NVA=   160 NVB=   160

 **** Warning!!: The largest alpha MO coefficient is  0.14223015D+02

 Keep R1, R2, and R3 ints in memory in canonical form, NReq=1241142556.
 Orbital symmetries:
       Occupied  (A) (A) (A) (A) (A) (A) (A) (A) (A) (A) (A) (A)
                 (A) (A) (A) (A) (A) (A) (A) (A) (A) (A) (A) (A)
                 (A) (A) (A) (A) (A) (A) (A) (A) (A) (A) (A) (A)
                 (A) (A) (A) (A) (A) (A) (A) (A) (A) (A) (A) (A)
                 (A) (A) (A) (A) (A) (A) (A) (A) (A) (A) (A) (A)
                 (A) (A) (A) (A) (A) (A) (A) (A) (A) (A) (A) (A)
                 (A) (A)
       Virtual   (A) (A) (A) (A) (A) (A) (A) (A) (A) (A) (A) (A)
                 (A) (A) (A) (A) (A) (A) (A) (A) (A) (A) (A) (A)
                 (A) (A) (A) (A) (A) (A) (A) (A) (A) (A) (A) (A)
                 (A) (A) (A) (A) (A) (A) (A) (A) (A) (A) (A) (A)
                 (A) (A) (A) (A) (A) (A) (A) (A) (A) (A) (A) (A)
                 (A) (A) (A) (A) (A) (A) (A) (A) (A) (A) (A) (A)
                 (A) (A) (A) (A) (A) (A) (A) (A) (A) (A) (A) (A)
                 (A) (A) (A) (A) (A) (A) (A) (A) (A) (A) (A) (A)
                 (A) (A) (A) (A) (A) (A) (A) (A) (A) (A) (A) (A)
                 (A) (A) (A) (A) (A) (A) (A) (A) (A) (A) (A) (A)
                 (A) (A) (A) (A) (A) (A) (A) (A) (A) (A) (A) (A)
                 (A) (A) (A) (A) (A) (A) (A) (A) (A) (A) (A) (A)
                 (A) (A) (A) (A) (A) (A) (A) (A) (A) (A) (A) (A)
                 (A) (A) (A) (A)
    24 initial guesses have been made.
 Convergence on wavefunction:    0.001000000000000
 Iteration     1 Dimension    24 NMult     0 NNew     24
 CISAX will form    24 AO SS matrices at one time.
 New state      1 was old state      6
 New state      3 was old state      1
 New state      5 was old state      8
 New state      6 was old state      3
 New state      7 was old state     16
 New state      8 was old state     12
 New state      9 was old state     14
 New state     10 was old state      5
 New state     11 was old state     10
 New state     12 was old state     11
 Vector   5 SDiff=2.81D+00 TDiff=8.87D+00 assumed to be singlet.
 Vector  11 SDiff=2.82D+00 TDiff=8.80D+00 assumed to be singlet.
 Iteration     2 Dimension    36 NMult    24 NNew     12
 New state      4 was old state      5
 New state      5 was old state      6
 New state      6 was old state     10
 Iteration     3 Dimension    48 NMult    36 NNew     12
 Iteration     4 Dimension    60 NMult    48 NNew     12
 New state      3 was old state      4
 New state      4 was old state      3
 Iteration     5 Dimension    72 NMult    60 NNew     12
 Iteration     6 Dimension    74 NMult    72 NNew      2
 Iteration     7 Dimension    76 NMult    74 NNew      2
 ***********************************************************************
 Excited states from <AA,BB:AA,BB> singles matrix:
 ***********************************************************************
 
 Ground to excited state transition densities written to RWF  633
 Ground to excited state transition electric dipole moments (Au):
       state          X           Y           Z        Dip. S.      Osc.
         1        -0.0000     -0.0000     -0.0000      0.0000      0.0000
         2         0.0000     -0.0000      0.0000      0.0000      0.0000
         3        -0.0000     -0.0000     -0.0000      0.0000      0.0000
         4         0.4685      0.0455      0.1157      0.2349      0.0229
         5        -0.0616     -0.0468      0.0478      0.0083      0.0008
         6         0.7113      0.0498      0.3003      0.5986      0.0640
 Ground to excited state transition velocity dipole moments (Au):
       state          X           Y           Z        Dip. S.      Osc.
         1         0.0000     -0.0000      0.0000      0.0000      0.0000
         2        -0.0000      0.0000     -0.0000      0.0000      0.0000
         3         0.0000      0.0000      0.0000      0.0000      0.0000
         4        -0.0647      0.0034     -0.0163      0.0045      0.0204
         5         0.0000      0.0034     -0.0143      0.0002      0.0009
         6        -0.0990     -0.0124     -0.0435      0.0118      0.0493
 Ground to excited state transition magnetic dipole moments (Au):
       state          X           Y           Z
         1        -0.0000     -0.0000      0.0000
         2        -0.0000      0.0000      0.0000
         3        -0.0000     -0.0000     -0.0000
         4        -0.0176      0.6380     -0.0387
         5        -0.1076      0.3634     -0.0262
         6        -0.2673      1.2666      0.1397
 Ground to excited state transition velocity quadrupole moments (Au):
       state          XX          YY          ZZ          XY          XZ          YZ
         1         0.0000      0.0000     -0.0000     -0.0000      0.0000     -0.0000
         2        -0.0000     -0.0000     -0.0000      0.0000     -0.0000     -0.0000
         3         0.0000     -0.0000      0.0000      0.0000      0.0000     -0.0000
         4        -0.1387      0.0823     -0.1462      0.1072     -0.1254      0.0428
         5        -0.0236     -0.0311     -0.0393     -0.0223     -0.0751      0.0146
         6        -0.3204      0.2242     -0.2883      0.1280     -0.3672      0.0722
 <0|del|b> * <b|rxdel|0> + <0|del|b> * <b|delr+rdel|0>
 Rotatory Strengths (R) in cgs (10**-40 erg-esu-cm/Gauss)
       state          XX          YY          ZZ    R(velocity)    E-M Angle
         1         0.0000     -0.0000     -0.0000     -0.0000       90.00
         2        -0.0000      0.0000      0.0000      0.0000       90.00
         3        -0.0000     -0.0000      0.0000     -0.0000       90.00
         4         3.5605      1.8114     13.6572      6.3430       84.72
         5         5.0407      0.1277      2.2642      2.4775       73.16
         6       -70.3505     41.5026     49.5694      6.9072       88.10
 1/2[<0|r|b>*<b|rxdel|0> + (<0|rxdel|b>*<b|r|0>)*]
 Rotatory Strengths (R) in cgs (10**-40 erg-esu-cm/Gauss)
       state          XX          YY          ZZ     R(length)
         1        -0.0000     -0.0000      0.0000     -0.0000
         2         0.0000      0.0000     -0.0000      0.0000
         3        -0.0000     -0.0000     -0.0000     -0.0000
         4         5.8208    -20.5470      3.1669     -3.8531
         5        -4.6897     12.0253      0.8867      2.7408
         6       134.4657    -44.5993    -29.6603     20.0687
  1/2[<0|del|b>*<b|r|0> + (<0|r|b>*<b|del|0>)*] (Au)
       state          X           Y           Z        Dip. S.   Osc.(frdel)
         1        -0.0000      0.0000     -0.0000      0.0000      0.0000
         2        -0.0000     -0.0000     -0.0000      0.0000      0.0000
         3        -0.0000     -0.0000     -0.0000      0.0000      0.0000
         4        -0.0303      0.0002     -0.0019      0.0321      0.0214
         5        -0.0000     -0.0002     -0.0007      0.0008      0.0006
         6        -0.0704     -0.0006     -0.0131      0.0841      0.0561

 Excitation energies and oscillator strengths:
 
 Excited State   1:      Triplet-A      2.8434 eV  436.04 nm  f=0.0000  <S**2>=2.000
      71 -> 78         0.14169
      74 -> 75         0.39718
      74 -> 77         0.56696
 This state for optimization and/or second-order correction.
 Total Energy, E(TD-HF/TD-DFT) =  -794.723552279    
 Copying the excited state density for this state as the 1-particle RhoCI density.
 
 Excited State   2:      Triplet-A      3.6126 eV  343.20 nm  f=0.0000  <S**2>=2.000
      72 -> 75         0.17256
      72 -> 76         0.40376
      73 -> 75         0.43339
      73 -> 76        -0.20383
      73 -> 77        -0.18121
      74 -> 75        -0.12455
      74 -> 77         0.11290
 
 Excited State   3:      Triplet-A      3.9351 eV  315.07 nm  f=0.0000  <S**2>=2.000
      71 -> 75         0.20445
      71 -> 77         0.29078
      72 -> 76        -0.10769
      74 -> 75        -0.29832
      74 -> 76         0.10803
      74 -> 77         0.19988
      74 -> 78         0.44147
 
 Excited State   4:      Singlet-A      3.9810 eV  311.44 nm  f=0.0229  <S**2>=0.000
      74 -> 75         0.70038
 
 Excited State   5:      Singlet-A      4.1822 eV  296.45 nm  f=0.0008  <S**2>=0.000
      74 -> 76         0.69793
 
 Excited State   6:      Singlet-A      4.3607 eV  284.32 nm  f=0.0640  <S**2>=0.000
      74 -> 77         0.70098
 SavETr:  write IOETrn=   770 NScale= 10 NData=  16 NLR=1 NState=    6 LETran=     118.

 **********************************************************************

            Population analysis using the SCF Density.

 **********************************************************************

 Orbital symmetries:
       Occupied  (A) (A) (A) (A) (A) (A) (A) (A) (A) (A) (A) (A)
                 (A) (A) (A) (A) (A) (A) (A) (A) (A) (A) (A) (A)
                 (A) (A) (A) (A) (A) (A) (A) (A) (A) (A) (A) (A)
                 (A) (A) (A) (A) (A) (A) (A) (A) (A) (A) (A) (A)
                 (A) (A) (A) (A) (A) (A) (A) (A) (A) (A) (A) (A)
                 (A) (A) (A) (A) (A) (A) (A) (A) (A) (A) (A) (A)
                 (A) (A)
       Virtual   (A) (A) (A) (A) (A) (A) (A) (A) (A) (A) (A) (A)
                 (A) (A) (A) (A) (A) (A) (A) (A) (A) (A) (A) (A)
                 (A) (A) (A) (A) (A) (A) (A) (A) (A) (A) (A) (A)
                 (A) (A) (A) (A) (A) (A) (A) (A) (A) (A) (A) (A)
                 (A) (A) (A) (A) (A) (A) (A) (A) (A) (A) (A) (A)
                 (A) (A) (A) (A) (A) (A) (A) (A) (A) (A) (A) (A)
                 (A) (A) (A) (A) (A) (A) (A) (A) (A) (A) (A) (A)
                 (A) (A) (A) (A) (A) (A) (A) (A) (A) (A) (A) (A)
                 (A) (A) (A) (A) (A) (A) (A) (A) (A) (A) (A) (A)
                 (A) (A) (A) (A) (A) (A) (A) (A) (A) (A) (A) (A)
                 (A) (A) (A) (A) (A) (A) (A) (A) (A) (A) (A) (A)
                 (A) (A) (A) (A) (A) (A) (A) (A) (A) (A) (A) (A)
                 (A) (A) (A) (A) (A) (A) (A) (A) (A) (A) (A) (A)
                 (A) (A) (A) (A)
 The electronic state is 1-A.
 Alpha  occ. eigenvalues --  -14.35471 -10.21917 -10.20806 -10.20631 -10.18916
 Alpha  occ. eigenvalues --  -10.18330 -10.18260 -10.18105 -10.17843 -10.17776
 Alpha  occ. eigenvalues --  -10.17264 -10.17039 -10.16662 -10.16659 -10.16567
 Alpha  occ. eigenvalues --  -10.16566 -10.16444 -10.15866 -10.15668 -10.15451
 Alpha  occ. eigenvalues --   -0.95375  -0.85489  -0.81162  -0.80261  -0.77372
 Alpha  occ. eigenvalues --   -0.75980  -0.74708  -0.71231  -0.68790  -0.67810
 Alpha  occ. eigenvalues --   -0.67619  -0.67220  -0.66449  -0.62936  -0.61020
 Alpha  occ. eigenvalues --   -0.56908  -0.55704  -0.52285  -0.51395  -0.48989
 Alpha  occ. eigenvalues --   -0.47724  -0.47431  -0.45442  -0.45143  -0.44388
 Alpha  occ. eigenvalues --   -0.43714  -0.43295  -0.42421  -0.41480  -0.41213
 Alpha  occ. eigenvalues --   -0.40954  -0.40327  -0.40209  -0.39626  -0.39451
 Alpha  occ. eigenvalues --   -0.38893  -0.38423  -0.36961  -0.36812  -0.35815
 Alpha  occ. eigenvalues --   -0.35508  -0.35296  -0.34435  -0.33566  -0.33439
 Alpha  occ. eigenvalues --   -0.32772  -0.31297  -0.30669  -0.30571  -0.30093
 Alpha  occ. eigenvalues --   -0.25172  -0.22387  -0.22016  -0.16422
 Alpha virt. eigenvalues --    0.00871   0.01420   0.02162   0.07238   0.08254
 Alpha virt. eigenvalues --    0.09241   0.11099   0.11223   0.12209   0.12495
 Alpha virt. eigenvalues --    0.13155   0.13445   0.14256   0.14508   0.14704
 Alpha virt. eigenvalues --    0.15459   0.16057   0.16662   0.16708   0.17039
 Alpha virt. eigenvalues --    0.17431   0.17827   0.18303   0.18800   0.18914
 Alpha virt. eigenvalues --    0.19260   0.19898   0.20996   0.21061   0.21864
 Alpha virt. eigenvalues --    0.22553   0.22826   0.23440   0.24324   0.24637
 Alpha virt. eigenvalues --    0.25385   0.26126   0.26234   0.27090   0.27702
 Alpha virt. eigenvalues --    0.28730   0.29153   0.30703   0.33831   0.35779
 Alpha virt. eigenvalues --    0.37028   0.38908   0.39517   0.40285   0.42710
 Alpha virt. eigenvalues --    0.45153   0.47807   0.50655   0.51037   0.52266
 Alpha virt. eigenvalues --    0.53388   0.53749   0.54515   0.55256   0.55621
 Alpha virt. eigenvalues --    0.56858   0.57511   0.57818   0.58443   0.59098
 Alpha virt. eigenvalues --    0.59505   0.60023   0.60109   0.61036   0.62394
 Alpha virt. eigenvalues --    0.63597   0.63884   0.64200   0.65086   0.66927
 Alpha virt. eigenvalues --    0.68082   0.68392   0.69040   0.69367   0.71233
 Alpha virt. eigenvalues --    0.72054   0.72408   0.73284   0.74637   0.75212
 Alpha virt. eigenvalues --    0.76096   0.76439   0.77041   0.77285   0.77594
 Alpha virt. eigenvalues --    0.78688   0.79665   0.81055   0.83425   0.83705
 Alpha virt. eigenvalues --    0.85601   0.85734   0.86277   0.86824   0.87424
 Alpha virt. eigenvalues --    0.87936   0.88249   0.89674   0.90293   0.91493
 Alpha virt. eigenvalues --    0.91951   0.93164   0.93697   0.94230   0.94505
 Alpha virt. eigenvalues --    0.95924   0.96331   0.96556   0.96811   0.97223
 Alpha virt. eigenvalues --    0.97953   0.98240   0.98537   0.99096   0.99491
 Alpha virt. eigenvalues --    1.00134   1.00462   1.00839   1.01815   1.03072
 Alpha virt. eigenvalues --    1.04229   1.05767   1.06946   1.07967   1.08533
 Alpha virt. eigenvalues --    1.10154   1.11383   1.12657   1.14894   1.15299
 Alpha virt. eigenvalues --    1.16835   1.18395   1.19473   1.21479   1.24925
 Alpha virt. eigenvalues --    1.26830   1.30622   1.32110   1.34136   1.38477
 Alpha virt. eigenvalues --    1.40822   1.46165   1.46435   1.49407   1.51862
 Alpha virt. eigenvalues --    1.53411   1.54474   1.55302   1.57765   1.63653
 Alpha virt. eigenvalues --    1.70135   1.77782   1.86400   1.93188   1.97384
          Condensed to atoms (all electrons):
               1          2          3          4          5          6
     1  C    5.167652   0.304947  -0.046797   0.005512  -0.000220   0.001012
     2  C    0.304947   4.799547   0.515919  -0.041443   0.006259  -0.027795
     3  C   -0.046797   0.515919   5.071860   0.499524  -0.047328  -0.044671
     4  C    0.005512  -0.041443   0.499524   4.913831   0.315328   0.488345
     5  C   -0.000220   0.006259  -0.047328   0.315328   5.168664  -0.053619
     6  C    0.001012  -0.027795  -0.044671   0.488345  -0.053619   5.047922
     7  C    0.000004   0.000041   0.008566  -0.075551  -0.007954   0.340863
     8  C   -0.000000   0.000033  -0.000017  -0.006764   0.002420  -0.010048
     9  N   -0.000000  -0.000000   0.000001   0.000224  -0.000256   0.002770
    10  C   -0.000000   0.000000  -0.000000  -0.000004   0.000000  -0.000048
    11  C    0.000000   0.000000   0.000000   0.000003   0.000040   0.000742
    12  C    0.000000   0.000000  -0.000000   0.000087  -0.000020   0.006444
    13  C   -0.000000   0.000004  -0.000004  -0.001169  -0.001320  -0.048820
    14  C    0.005732  -0.036378  -0.048735  -0.039319   0.006391   0.494694
    15  C   -0.000207   0.005115   0.000772   0.005721  -0.000156  -0.039292
    16  C   -0.000001   0.000169   0.000013  -0.000123   0.000001  -0.002762
    17  C   -0.000000  -0.000001   0.000000  -0.000000  -0.000000  -0.000025
    18  C    0.000000   0.000013   0.000000  -0.000010  -0.000000   0.001610
    19  C   -0.000002  -0.000205   0.000002   0.000012   0.000000  -0.000148
    20  C   -0.041194   0.522941  -0.051983  -0.045623   0.000716  -0.054437
    21  H    0.365962  -0.033978  -0.002070   0.000271   0.000000   0.000005
    22  H    0.366000  -0.034772   0.002752  -0.000188   0.000002  -0.000014
    23  H    0.365833  -0.032200  -0.002530  -0.000106   0.000001   0.000025
    24  H   -0.005889  -0.043417   0.344200  -0.033553  -0.007497   0.004598
    25  H   -0.000002   0.000467  -0.001245  -0.036649   0.358100   0.004073
    26  H    0.000002  -0.000181  -0.000555  -0.031578   0.365505  -0.003317
    27  H    0.000003  -0.000227   0.000996  -0.028850   0.364123  -0.006471
    28  H   -0.000000  -0.000010  -0.000028   0.000940  -0.000081  -0.003577
    29  H   -0.000000   0.000000  -0.000000   0.000003  -0.000001  -0.000001
    30  H   -0.000000  -0.000000   0.000000   0.000000  -0.000000   0.000002
    31  H    0.000000   0.000000   0.000000  -0.000003   0.000005   0.000001
    32  H   -0.000000  -0.000000   0.000000   0.000000   0.000000  -0.000010
    33  H   -0.000000  -0.000000  -0.000000   0.000000  -0.000001  -0.000186
    34  H   -0.000000  -0.000017  -0.000114   0.003820  -0.000715  -0.001094
    35  H    0.000000  -0.000004   0.000034  -0.000886   0.000138  -0.003168
    36  H    0.000004   0.000234  -0.000008  -0.000181   0.000002   0.003486
    37  H    0.000000  -0.000000  -0.000000  -0.000000   0.000000   0.000000
    38  H    0.000000   0.000000  -0.000000  -0.000000   0.000000  -0.000002
    39  H    0.000000   0.000000  -0.000000   0.000000  -0.000000   0.000006
    40  H   -0.000000  -0.000001  -0.000000   0.000001  -0.000000  -0.000015
    41  H   -0.000001  -0.000087  -0.000013  -0.000020  -0.000009   0.002262
    42  H    0.000000   0.000001  -0.000000   0.000023   0.000000  -0.000008
    43  H   -0.000003   0.000033   0.000000  -0.000000   0.000000  -0.000003
    44  H    0.000000  -0.000000  -0.000000  -0.000000   0.000000   0.000004
    45  H    0.000026   0.000032  -0.000005  -0.000045  -0.000000   0.000136
    46  H   -0.006876  -0.038857   0.004985   0.000828   0.000010   0.003808
    47  H    0.000002  -0.000215  -0.000019   0.000502   0.000001  -0.011235
               7          8          9         10         11         12
     1  C    0.000004  -0.000000  -0.000000  -0.000000   0.000000   0.000000
     2  C    0.000041   0.000033  -0.000000   0.000000   0.000000   0.000000
     3  C    0.008566  -0.000017   0.000001  -0.000000   0.000000  -0.000000
     4  C   -0.075551  -0.006764   0.000224  -0.000004   0.000003   0.000087
     5  C   -0.007954   0.002420  -0.000256   0.000000   0.000040  -0.000020
     6  C    0.340863  -0.010048   0.002770  -0.000048   0.000742   0.006444
     7  C    5.023610   0.619884  -0.035018   0.003974  -0.006029  -0.013750
     8  C    0.619884   4.831529   0.218613  -0.032557  -0.054447  -0.013511
     9  N   -0.035018   0.218613   7.239416   0.261504   0.260406  -0.050639
    10  C    0.003974  -0.032557   0.261504   4.916535  -0.033605   0.003932
    11  C   -0.006029  -0.054447   0.260406  -0.033605   4.732262   0.666482
    12  C   -0.013750  -0.013511  -0.050639   0.003932   0.666482   5.005312
    13  C    0.334641  -0.053300  -0.031883   0.000029  -0.044455   0.311406
    14  C   -0.062193  -0.002277   0.000019   0.000000   0.000013   0.000150
    15  C   -0.011001   0.000528  -0.000038   0.000000   0.000007  -0.000252
    16  C   -0.001046  -0.000407   0.000017   0.000000  -0.000002   0.000005
    17  C   -0.000040  -0.000006   0.000001   0.000000  -0.000001  -0.000001
    18  C   -0.000493  -0.001254  -0.000267  -0.000006   0.000008   0.000003
    19  C    0.000013  -0.000007  -0.000000  -0.000000   0.000000  -0.000000
    20  C    0.008213  -0.000144   0.000001  -0.000000   0.000000   0.000000
    21  H   -0.000000   0.000000  -0.000000   0.000000  -0.000000   0.000000
    22  H   -0.000000   0.000000  -0.000000   0.000000  -0.000000   0.000000
    23  H   -0.000000  -0.000000   0.000000  -0.000000   0.000000  -0.000000
    24  H   -0.000223  -0.000006  -0.000000   0.000000  -0.000000  -0.000000
    25  H    0.000852   0.000164  -0.000002  -0.000000  -0.000000   0.000001
    26  H    0.001215   0.001575  -0.000118   0.000015  -0.000005   0.000004
    27  H    0.001879  -0.000077   0.000044  -0.000004   0.000042  -0.000275
    28  H   -0.037719   0.368284  -0.057403  -0.003311   0.003913  -0.000375
    29  H    0.000474  -0.000764  -0.043932   0.378518   0.002355  -0.000212
    30  H   -0.000209   0.002301  -0.043702   0.378310  -0.001056   0.000408
    31  H    0.000065   0.001528  -0.057672   0.370141   0.001494   0.000180
    32  H   -0.000461   0.004595  -0.060205  -0.003229   0.368815  -0.031565
    33  H    0.003097   0.000836   0.004590  -0.000137  -0.032768   0.356865
    34  H   -0.046469  -0.001607   0.001725   0.000023  -0.001165  -0.042529
    35  H   -0.049448   0.001010   0.000792  -0.000003   0.000666  -0.045236
    36  H    0.000410   0.000046   0.000000  -0.000000  -0.000000  -0.000003
    37  H    0.000000  -0.000000   0.000000   0.000000   0.000000   0.000000
    38  H    0.000002  -0.000000  -0.000000   0.000000  -0.000000  -0.000000
    39  H   -0.000023  -0.000011  -0.000001  -0.000000   0.000004   0.000002
    40  H    0.000068   0.000109  -0.000003  -0.000001  -0.000000   0.000000
    41  H   -0.000370  -0.000271   0.000017  -0.000002   0.000000  -0.000001
    42  H    0.000100   0.002993   0.000602  -0.000032   0.000010  -0.000039
    43  H    0.000000   0.000000  -0.000000   0.000000  -0.000000   0.000000
    44  H   -0.000000   0.000000  -0.000000   0.000000  -0.000000   0.000000
    45  H    0.000000  -0.000001   0.000000   0.000000  -0.000000   0.000000
    46  H   -0.000198  -0.000001  -0.000000   0.000000  -0.000000  -0.000000
    47  H    0.010614   0.001083  -0.000198  -0.000003   0.000222   0.000291
              13         14         15         16         17         18
     1  C   -0.000000   0.005732  -0.000207  -0.000001  -0.000000   0.000000
     2  C    0.000004  -0.036378   0.005115   0.000169  -0.000001   0.000013
     3  C   -0.000004  -0.048735   0.000772   0.000013   0.000000   0.000000
     4  C   -0.001169  -0.039319   0.005721  -0.000123  -0.000000  -0.000010
     5  C   -0.001320   0.006391  -0.000156   0.000001  -0.000000  -0.000000
     6  C   -0.048820   0.494694  -0.039292  -0.002762  -0.000025   0.001610
     7  C    0.334641  -0.062193  -0.011001  -0.001046  -0.000040  -0.000493
     8  C   -0.053300  -0.002277   0.000528  -0.000407  -0.000006  -0.001254
     9  N   -0.031883   0.000019  -0.000038   0.000017   0.000001  -0.000267
    10  C    0.000029   0.000000   0.000000   0.000000   0.000000  -0.000006
    11  C   -0.044455   0.000013   0.000007  -0.000002  -0.000001   0.000008
    12  C    0.311406   0.000150  -0.000252   0.000005  -0.000001   0.000003
    13  C    5.145549  -0.002132  -0.002531   0.000062   0.000004   0.000004
    14  C   -0.002132   4.959715   0.299359  -0.035449   0.006042  -0.006173
    15  C   -0.002531   0.299359   5.239046   0.327349  -0.060045  -0.059528
    16  C    0.000062  -0.035449   0.327349   5.017610   0.340796   0.346581
    17  C    0.000004   0.006042  -0.060045   0.340796   5.155314  -0.065288
    18  C    0.000004  -0.006173  -0.059528   0.346581  -0.065288   5.165799
    19  C   -0.000001  -0.007004  -0.057582   0.345830  -0.065361  -0.069214
    20  C    0.000083   0.460727  -0.048051  -0.004778   0.000042  -0.001030
    21  H   -0.000000  -0.000193   0.000002   0.000000   0.000000  -0.000000
    22  H   -0.000000   0.000366   0.000005   0.000001  -0.000000   0.000000
    23  H    0.000000  -0.000185   0.000002  -0.000000   0.000000  -0.000000
    24  H    0.000002   0.000702   0.000009  -0.000000   0.000000   0.000000
    25  H    0.000019  -0.000148   0.000002   0.000000   0.000000  -0.000000
    26  H   -0.000003   0.000005  -0.000001  -0.000000   0.000000  -0.000000
    27  H    0.001411   0.000019   0.000006   0.000000  -0.000000   0.000000
    28  H    0.005618   0.000514  -0.000013  -0.000123   0.000006   0.000886
    29  H   -0.000005  -0.000002   0.000000  -0.000001  -0.000000   0.000029
    30  H    0.000000  -0.000000  -0.000000  -0.000000  -0.000000   0.000001
    31  H    0.000022   0.000000   0.000000   0.000000   0.000000  -0.000000
    32  H    0.005424   0.000000  -0.000000  -0.000000  -0.000000   0.000000
    33  H   -0.037030  -0.000001  -0.000003  -0.000000   0.000000   0.000000
    34  H    0.359740  -0.000612  -0.000026  -0.000006  -0.000000   0.000001
    35  H    0.364133   0.003012   0.003010   0.000104   0.000001  -0.000012
    36  H    0.000049  -0.039012   0.358514  -0.041479  -0.004566   0.006474
    37  H   -0.000000  -0.000196   0.005279  -0.033429   0.363643  -0.004063
    38  H    0.000000   0.000077  -0.004157  -0.035098   0.364961   0.005895
    39  H   -0.000002   0.000025  -0.004767  -0.033840   0.365990  -0.004297
    40  H   -0.000000   0.000083   0.005746  -0.034454  -0.004641   0.360689
    41  H    0.000015   0.006289  -0.007444  -0.031916   0.005739   0.366783
    42  H    0.000018  -0.000703  -0.003186  -0.032659  -0.004554   0.365999
    43  H    0.000000  -0.000534  -0.003860  -0.034301  -0.004155   0.005860
    44  H    0.000000   0.000108   0.005457  -0.033982  -0.006018  -0.004158
    45  H   -0.000000   0.003347  -0.005674  -0.031275   0.005782  -0.004195
    46  H    0.000001  -0.037136  -0.004337  -0.000876  -0.000029   0.000113
    47  H   -0.000119  -0.037124   0.358718  -0.039161  -0.004473  -0.006037
              19         20         21         22         23         24
     1  C   -0.000002  -0.041194   0.365962   0.366000   0.365833  -0.005889
     2  C   -0.000205   0.522941  -0.033978  -0.034772  -0.032200  -0.043417
     3  C    0.000002  -0.051983  -0.002070   0.002752  -0.002530   0.344200
     4  C    0.000012  -0.045623   0.000271  -0.000188  -0.000106  -0.033553
     5  C    0.000000   0.000716   0.000000   0.000002   0.000001  -0.007497
     6  C   -0.000148  -0.054437   0.000005  -0.000014   0.000025   0.004598
     7  C    0.000013   0.008213  -0.000000  -0.000000  -0.000000  -0.000223
     8  C   -0.000007  -0.000144   0.000000   0.000000  -0.000000  -0.000006
     9  N   -0.000000   0.000001  -0.000000  -0.000000   0.000000  -0.000000
    10  C   -0.000000  -0.000000   0.000000   0.000000  -0.000000   0.000000
    11  C    0.000000   0.000000  -0.000000  -0.000000   0.000000  -0.000000
    12  C   -0.000000   0.000000   0.000000   0.000000  -0.000000  -0.000000
    13  C   -0.000001   0.000083  -0.000000  -0.000000   0.000000   0.000002
    14  C   -0.007004   0.460727  -0.000193   0.000366  -0.000185   0.000702
    15  C   -0.057582  -0.048051   0.000002   0.000005   0.000002   0.000009
    16  C    0.345830  -0.004778   0.000000   0.000001  -0.000000  -0.000000
    17  C   -0.065361   0.000042   0.000000  -0.000000   0.000000   0.000000
    18  C   -0.069214  -0.001030  -0.000000   0.000000  -0.000000   0.000000
    19  C    5.169257  -0.001481  -0.000000  -0.000006   0.000004   0.000000
    20  C   -0.001481   5.116751   0.001985  -0.001394  -0.002077   0.004979
    21  H   -0.000000   0.001985   0.582883  -0.029333  -0.033484   0.003516
    22  H   -0.000006  -0.001394  -0.029333   0.581120  -0.031622   0.000051
    23  H    0.000004  -0.002077  -0.033484  -0.031622   0.582811   0.000633
    24  H    0.000000   0.004979   0.003516   0.000051   0.000633   0.615235
    25  H    0.000000  -0.000011  -0.000001   0.000000   0.000001   0.005931
    26  H   -0.000000   0.000020   0.000000  -0.000000  -0.000000   0.000231
    27  H    0.000000   0.000016  -0.000000  -0.000000   0.000000   0.000166
    28  H    0.000002  -0.000004  -0.000000  -0.000000   0.000000   0.000001
    29  H    0.000000   0.000000   0.000000   0.000000  -0.000000   0.000000
    30  H    0.000000   0.000000  -0.000000  -0.000000   0.000000  -0.000000
    31  H   -0.000000  -0.000000  -0.000000  -0.000000   0.000000  -0.000000
    32  H    0.000000   0.000000  -0.000000  -0.000000   0.000000  -0.000000
    33  H   -0.000000  -0.000000  -0.000000  -0.000000   0.000000   0.000000
    34  H    0.000000   0.000046   0.000000   0.000000  -0.000000   0.000003
    35  H    0.000000  -0.000203   0.000000  -0.000000  -0.000000  -0.000000
    36  H   -0.007822  -0.007046  -0.000000  -0.000004   0.000000  -0.000000
    37  H   -0.004325   0.000001  -0.000000   0.000000  -0.000000  -0.000000
    38  H   -0.004355  -0.000005   0.000000  -0.000000  -0.000000   0.000000
    39  H    0.005871   0.000001  -0.000000  -0.000000  -0.000000  -0.000000
    40  H   -0.004966   0.000010  -0.000000   0.000000   0.000000   0.000000
    41  H   -0.004080   0.000650   0.000000  -0.000000   0.000001   0.000000
    42  H    0.005618   0.000030   0.000000   0.000000  -0.000000   0.000000
    43  H    0.363417  -0.000671  -0.000000  -0.000001  -0.000000   0.000000
    44  H    0.361971   0.000073   0.000000   0.000000  -0.000000  -0.000000
    45  H    0.364028   0.004763   0.000001  -0.000002  -0.000010   0.000000
    46  H    0.001279   0.345146   0.000064   0.004901   0.000347  -0.000213
    47  H    0.006055   0.005110  -0.000000   0.000000  -0.000000  -0.000000
              25         26         27         28         29         30
     1  C   -0.000002   0.000002   0.000003  -0.000000  -0.000000  -0.000000
     2  C    0.000467  -0.000181  -0.000227  -0.000010   0.000000  -0.000000
     3  C   -0.001245  -0.000555   0.000996  -0.000028  -0.000000   0.000000
     4  C   -0.036649  -0.031578  -0.028850   0.000940   0.000003   0.000000
     5  C    0.358100   0.365505   0.364123  -0.000081  -0.000001  -0.000000
     6  C    0.004073  -0.003317  -0.006471  -0.003577  -0.000001   0.000002
     7  C    0.000852   0.001215   0.001879  -0.037719   0.000474  -0.000209
     8  C    0.000164   0.001575  -0.000077   0.368284  -0.000764   0.002301
     9  N   -0.000002  -0.000118   0.000044  -0.057403  -0.043932  -0.043702
    10  C   -0.000000   0.000015  -0.000004  -0.003311   0.378518   0.378310
    11  C   -0.000000  -0.000005   0.000042   0.003913   0.002355  -0.001056
    12  C    0.000001   0.000004  -0.000275  -0.000375  -0.000212   0.000408
    13  C    0.000019  -0.000003   0.001411   0.005618  -0.000005   0.000000
    14  C   -0.000148   0.000005   0.000019   0.000514  -0.000002  -0.000000
    15  C    0.000002  -0.000001   0.000006  -0.000013   0.000000  -0.000000
    16  C    0.000000  -0.000000   0.000000  -0.000123  -0.000001  -0.000000
    17  C    0.000000   0.000000  -0.000000   0.000006  -0.000000  -0.000000
    18  C   -0.000000  -0.000000   0.000000   0.000886   0.000029   0.000001
    19  C    0.000000  -0.000000   0.000000   0.000002   0.000000   0.000000
    20  C   -0.000011   0.000020   0.000016  -0.000004   0.000000   0.000000
    21  H   -0.000001   0.000000  -0.000000  -0.000000   0.000000  -0.000000
    22  H    0.000000  -0.000000  -0.000000  -0.000000   0.000000  -0.000000
    23  H    0.000001  -0.000000   0.000000   0.000000  -0.000000   0.000000
    24  H    0.005931   0.000231   0.000166   0.000001   0.000000  -0.000000
    25  H    0.596402  -0.031038  -0.030072   0.000002  -0.000000  -0.000000
    26  H   -0.031038   0.584929  -0.034355   0.000396  -0.000001   0.000000
    27  H   -0.030072  -0.034355   0.574925   0.000065   0.000000   0.000000
    28  H    0.000002   0.000396   0.000065   0.577177   0.003814   0.000139
    29  H   -0.000000  -0.000001   0.000000   0.003814   0.572351  -0.023564
    30  H   -0.000000   0.000000   0.000000   0.000139  -0.023564   0.574996
    31  H    0.000000   0.000008  -0.000001   0.000057  -0.043064  -0.043167
    32  H   -0.000000  -0.000000   0.000000  -0.000161   0.000125   0.004074
    33  H    0.000000  -0.000000   0.000001   0.000009   0.000003  -0.000000
    34  H   -0.000126  -0.000031   0.002911  -0.000129   0.000002   0.000001
    35  H    0.000003  -0.000000  -0.000042  -0.000153  -0.000002  -0.000002
    36  H   -0.000000   0.000000  -0.000000   0.000000   0.000000   0.000000
    37  H   -0.000000  -0.000000   0.000000  -0.000000   0.000000  -0.000000
    38  H   -0.000000   0.000000  -0.000000  -0.000000  -0.000000   0.000000
    39  H    0.000000   0.000000  -0.000000   0.000000   0.000000   0.000000
    40  H   -0.000000  -0.000000   0.000000  -0.000014   0.000003   0.000000
    41  H    0.000000   0.000000   0.000000   0.001731  -0.000004   0.000000
    42  H   -0.000000   0.000000   0.000000   0.000352   0.000111  -0.000010
    43  H   -0.000000   0.000000  -0.000000  -0.000000  -0.000000   0.000000
    44  H   -0.000000   0.000000  -0.000000  -0.000000   0.000000  -0.000000
    45  H    0.000000   0.000000  -0.000000  -0.000000  -0.000000  -0.000000
    46  H   -0.000000  -0.000000  -0.000000   0.000000  -0.000000  -0.000000
    47  H   -0.000000   0.000000  -0.000001   0.000076   0.000001   0.000000
              31         32         33         34         35         36
     1  C    0.000000  -0.000000  -0.000000  -0.000000   0.000000   0.000004
     2  C    0.000000  -0.000000  -0.000000  -0.000017  -0.000004   0.000234
     3  C    0.000000   0.000000  -0.000000  -0.000114   0.000034  -0.000008
     4  C   -0.000003   0.000000   0.000000   0.003820  -0.000886  -0.000181
     5  C    0.000005   0.000000  -0.000001  -0.000715   0.000138   0.000002
     6  C    0.000001  -0.000010  -0.000186  -0.001094  -0.003168   0.003486
     7  C    0.000065  -0.000461   0.003097  -0.046469  -0.049448   0.000410
     8  C    0.001528   0.004595   0.000836  -0.001607   0.001010   0.000046
     9  N   -0.057672  -0.060205   0.004590   0.001725   0.000792   0.000000
    10  C    0.370141  -0.003229  -0.000137   0.000023  -0.000003  -0.000000
    11  C    0.001494   0.368815  -0.032768  -0.001165   0.000666  -0.000000
    12  C    0.000180  -0.031565   0.356865  -0.042529  -0.045236  -0.000003
    13  C    0.000022   0.005424  -0.037030   0.359740   0.364133   0.000049
    14  C    0.000000   0.000000  -0.000001  -0.000612   0.003012  -0.039012
    15  C    0.000000  -0.000000  -0.000003  -0.000026   0.003010   0.358514
    16  C    0.000000  -0.000000  -0.000000  -0.000006   0.000104  -0.041479
    17  C    0.000000  -0.000000   0.000000  -0.000000   0.000001  -0.004566
    18  C   -0.000000   0.000000   0.000000   0.000001  -0.000012   0.006474
    19  C   -0.000000   0.000000  -0.000000   0.000000   0.000000  -0.007822
    20  C   -0.000000   0.000000  -0.000000   0.000046  -0.000203  -0.007046
    21  H   -0.000000  -0.000000  -0.000000   0.000000   0.000000  -0.000000
    22  H   -0.000000  -0.000000  -0.000000   0.000000  -0.000000  -0.000004
    23  H    0.000000   0.000000   0.000000  -0.000000  -0.000000   0.000000
    24  H   -0.000000  -0.000000   0.000000   0.000003  -0.000000  -0.000000
    25  H    0.000000  -0.000000   0.000000  -0.000126   0.000003  -0.000000
    26  H    0.000008  -0.000000  -0.000000  -0.000031  -0.000000   0.000000
    27  H   -0.000001   0.000000   0.000001   0.002911  -0.000042  -0.000000
    28  H    0.000057  -0.000161   0.000009  -0.000129  -0.000153   0.000000
    29  H   -0.043064   0.000125   0.000003   0.000002  -0.000002   0.000000
    30  H   -0.043167   0.004074  -0.000000   0.000001  -0.000002   0.000000
    31  H    0.621457  -0.000046  -0.000002  -0.000014   0.000003  -0.000000
    32  H   -0.000046   0.588704  -0.005328  -0.000105  -0.000155  -0.000000
    33  H   -0.000002  -0.005328   0.603185   0.000125  -0.001754   0.000000
    34  H   -0.000014  -0.000105   0.000125   0.652228  -0.059998   0.000006
    35  H    0.000003  -0.000155  -0.001754  -0.059998   0.652603  -0.000106
    36  H   -0.000000  -0.000000   0.000000   0.000006  -0.000106   0.633998
    37  H    0.000000  -0.000000  -0.000000  -0.000000  -0.000000  -0.000051
    38  H   -0.000000  -0.000000   0.000000   0.000000   0.000000   0.004956
    39  H    0.000000   0.000000  -0.000000   0.000000  -0.000003  -0.000225
    40  H   -0.000000  -0.000000   0.000000   0.000000  -0.000000  -0.000185
    41  H    0.000000  -0.000000   0.000000  -0.000000   0.000001   0.000066
    42  H    0.000005   0.000000  -0.000000   0.000001  -0.000006  -0.000048
    43  H   -0.000000  -0.000000   0.000000   0.000000  -0.000000   0.004432
    44  H   -0.000000  -0.000000   0.000000  -0.000000  -0.000000   0.000053
    45  H    0.000000  -0.000000   0.000000  -0.000000   0.000000  -0.000075
    46  H    0.000000  -0.000000   0.000000  -0.000000   0.000006   0.002897
    47  H   -0.000000   0.000002  -0.000009   0.000255   0.000046  -0.037952
              37         38         39         40         41         42
     1  C    0.000000   0.000000   0.000000  -0.000000  -0.000001   0.000000
     2  C   -0.000000   0.000000   0.000000  -0.000001  -0.000087   0.000001
     3  C   -0.000000  -0.000000  -0.000000  -0.000000  -0.000013  -0.000000
     4  C   -0.000000  -0.000000   0.000000   0.000001  -0.000020   0.000023
     5  C    0.000000   0.000000  -0.000000  -0.000000  -0.000009   0.000000
     6  C    0.000000  -0.000002   0.000006  -0.000015   0.002262  -0.000008
     7  C    0.000000   0.000002  -0.000023   0.000068  -0.000370   0.000100
     8  C   -0.000000  -0.000000  -0.000011   0.000109  -0.000271   0.002993
     9  N    0.000000  -0.000000  -0.000001  -0.000003   0.000017   0.000602
    10  C    0.000000   0.000000  -0.000000  -0.000001  -0.000002  -0.000032
    11  C    0.000000  -0.000000   0.000004  -0.000000   0.000000   0.000010
    12  C    0.000000  -0.000000   0.000002   0.000000  -0.000001  -0.000039
    13  C   -0.000000   0.000000  -0.000002  -0.000000   0.000015   0.000018
    14  C   -0.000196   0.000077   0.000025   0.000083   0.006289  -0.000703
    15  C    0.005279  -0.004157  -0.004767   0.005746  -0.007444  -0.003186
    16  C   -0.033429  -0.035098  -0.033840  -0.034454  -0.031916  -0.032659
    17  C    0.363643   0.364961   0.365990  -0.004641   0.005739  -0.004554
    18  C   -0.004063   0.005895  -0.004297   0.360689   0.366783   0.365999
    19  C   -0.004325  -0.004355   0.005871  -0.004966  -0.004080   0.005618
    20  C    0.000001  -0.000005   0.000001   0.000010   0.000650   0.000030
    21  H   -0.000000   0.000000  -0.000000  -0.000000   0.000000   0.000000
    22  H    0.000000  -0.000000  -0.000000   0.000000  -0.000000   0.000000
    23  H   -0.000000  -0.000000  -0.000000   0.000000   0.000001  -0.000000
    24  H   -0.000000   0.000000  -0.000000   0.000000   0.000000   0.000000
    25  H   -0.000000  -0.000000   0.000000  -0.000000   0.000000  -0.000000
    26  H   -0.000000   0.000000   0.000000  -0.000000   0.000000   0.000000
    27  H    0.000000  -0.000000  -0.000000   0.000000   0.000000   0.000000
    28  H   -0.000000  -0.000000   0.000000  -0.000014   0.001731   0.000352
    29  H    0.000000  -0.000000   0.000000   0.000003  -0.000004   0.000111
    30  H   -0.000000   0.000000   0.000000   0.000000   0.000000  -0.000010
    31  H    0.000000  -0.000000   0.000000  -0.000000   0.000000   0.000005
    32  H   -0.000000  -0.000000   0.000000  -0.000000  -0.000000   0.000000
    33  H   -0.000000   0.000000  -0.000000   0.000000   0.000000  -0.000000
    34  H   -0.000000   0.000000   0.000000   0.000000  -0.000000   0.000001
    35  H   -0.000000   0.000000  -0.000003  -0.000000   0.000001  -0.000006
    36  H   -0.000051   0.004956  -0.000225  -0.000185   0.000066  -0.000048
    37  H    0.607123  -0.033021  -0.032139   0.003792  -0.000051  -0.000132
    38  H   -0.033021   0.606122  -0.032509  -0.000027  -0.000204  -0.000011
    39  H   -0.032139  -0.032509   0.597668  -0.000216  -0.000012   0.003872
    40  H    0.003792  -0.000027  -0.000216   0.616602  -0.033032  -0.031943
    41  H   -0.000051  -0.000204  -0.000012  -0.033032   0.587990  -0.032769
    42  H   -0.000132  -0.000011   0.003872  -0.031943  -0.032769   0.588638
    43  H   -0.000155   0.003779  -0.000042   0.000001  -0.000020  -0.000208
    44  H    0.004405  -0.000173   0.000014   0.004182  -0.000277  -0.000031
    45  H   -0.000046  -0.000016  -0.000203  -0.000320   0.003801   0.000003
    46  H    0.000002  -0.000002  -0.000001   0.000000  -0.000005  -0.000006
    47  H    0.000036  -0.000341   0.005424  -0.000009  -0.000057   0.003111
              43         44         45         46         47
     1  C   -0.000003   0.000000   0.000026  -0.006876   0.000002
     2  C    0.000033  -0.000000   0.000032  -0.038857  -0.000215
     3  C    0.000000  -0.000000  -0.000005   0.004985  -0.000019
     4  C   -0.000000  -0.000000  -0.000045   0.000828   0.000502
     5  C    0.000000   0.000000  -0.000000   0.000010   0.000001
     6  C   -0.000003   0.000004   0.000136   0.003808  -0.011235
     7  C    0.000000  -0.000000   0.000000  -0.000198   0.010614
     8  C    0.000000   0.000000  -0.000001  -0.000001   0.001083
     9  N   -0.000000  -0.000000   0.000000  -0.000000  -0.000198
    10  C    0.000000   0.000000   0.000000   0.000000  -0.000003
    11  C   -0.000000  -0.000000  -0.000000  -0.000000   0.000222
    12  C    0.000000   0.000000   0.000000  -0.000000   0.000291
    13  C    0.000000   0.000000  -0.000000   0.000001  -0.000119
    14  C   -0.000534   0.000108   0.003347  -0.037136  -0.037124
    15  C   -0.003860   0.005457  -0.005674  -0.004337   0.358718
    16  C   -0.034301  -0.033982  -0.031275  -0.000876  -0.039161
    17  C   -0.004155  -0.006018   0.005782  -0.000029  -0.004473
    18  C    0.005860  -0.004158  -0.004195   0.000113  -0.006037
    19  C    0.363417   0.361971   0.364028   0.001279   0.006055
    20  C   -0.000671   0.000073   0.004763   0.345146   0.005110
    21  H   -0.000000   0.000000   0.000001   0.000064  -0.000000
    22  H   -0.000001   0.000000  -0.000002   0.004901   0.000000
    23  H   -0.000000  -0.000000  -0.000010   0.000347  -0.000000
    24  H    0.000000  -0.000000   0.000000  -0.000213  -0.000000
    25  H   -0.000000  -0.000000   0.000000  -0.000000  -0.000000
    26  H    0.000000   0.000000   0.000000  -0.000000   0.000000
    27  H   -0.000000  -0.000000  -0.000000  -0.000000  -0.000001
    28  H   -0.000000  -0.000000  -0.000000   0.000000   0.000076
    29  H   -0.000000   0.000000  -0.000000  -0.000000   0.000001
    30  H    0.000000  -0.000000  -0.000000  -0.000000   0.000000
    31  H   -0.000000  -0.000000   0.000000   0.000000  -0.000000
    32  H   -0.000000  -0.000000  -0.000000  -0.000000   0.000002
    33  H    0.000000   0.000000   0.000000   0.000000  -0.000009
    34  H    0.000000  -0.000000  -0.000000  -0.000000   0.000255
    35  H   -0.000000  -0.000000   0.000000   0.000006   0.000046
    36  H    0.004432   0.000053  -0.000075   0.002897  -0.037952
    37  H   -0.000155   0.004405  -0.000046   0.000002   0.000036
    38  H    0.003779  -0.000173  -0.000016  -0.000002  -0.000341
    39  H   -0.000042   0.000014  -0.000203  -0.000001   0.005424
    40  H    0.000001   0.004182  -0.000320   0.000000  -0.000009
    41  H   -0.000020  -0.000277   0.003801  -0.000005  -0.000057
    42  H   -0.000208  -0.000031   0.000003  -0.000006   0.003111
    43  H    0.610617  -0.032916  -0.033602   0.002279  -0.000005
    44  H   -0.032916   0.610516  -0.031303   0.000022  -0.000179
    45  H   -0.033602  -0.031303   0.584708   0.000909  -0.000047
    46  H    0.002279   0.000022   0.000909   0.603695   0.000070
    47  H   -0.000005  -0.000179  -0.000047   0.000070   0.606354
 Mulliken charges:
               1
     1  C   -0.481499
     2  C    0.134030
     3  C   -0.203503
     4  C    0.107090
     5  C   -0.468531
     6  C   -0.092041
     7  C   -0.010392
     8  C    0.119946
     9  N   -0.609403
    10  C   -0.240043
    11  C    0.136047
    12  C   -0.153163
    13  C   -0.305459
    14  C    0.108118
    15  C   -0.302494
    16  C    0.048629
    17  C   -0.389118
    18  C   -0.400722
    19  C   -0.396802
    20  C   -0.212171
    21  H    0.144371
    22  H    0.142140
    23  H    0.152557
    24  H    0.110541
    25  H    0.133280
    26  H    0.147277
    27  H    0.153768
    28  H    0.139118
    29  H    0.153764
    30  H    0.151479
    31  H    0.149004
    32  H    0.129526
    33  H    0.108507
    34  H    0.133869
    35  H    0.135618
    36  H    0.123139
    37  H    0.123328
    38  H    0.124131
    39  H    0.129413
    40  H    0.118543
    41  H    0.135296
    42  H    0.134857
    43  H    0.120059
    44  H    0.122231
    45  H    0.139284
    46  H    0.117173
    47  H    0.139210
 Sum of Mulliken charges =  -0.00000
 Mulliken charges with hydrogens summed into heavy atoms:
               1
     1  C   -0.042432
     2  C    0.134030
     3  C   -0.092962
     4  C    0.107090
     5  C   -0.034206
     6  C   -0.092041
     7  C   -0.010392
     8  C    0.259064
     9  N   -0.609403
    10  C    0.214205
    11  C    0.265573
    12  C   -0.044656
    13  C   -0.035972
    14  C    0.108118
    15  C   -0.040145
    16  C    0.048629
    17  C   -0.012247
    18  C   -0.012026
    19  C   -0.015228
    20  C   -0.094998
 Electronic spatial extent (au):  <R**2>=           6215.1281
 Charge=             -0.0000 electrons
 Dipole moment (field-independent basis, Debye):
    X=              1.3101    Y=              0.0886    Z=             -1.2200  Tot=              1.7924
 Quadrupole moment (field-independent basis, Debye-Ang):
   XX=           -110.9408   YY=           -123.4161   ZZ=           -121.3494
   XY=              1.6307   XZ=             -4.4248   YZ=              1.0563
 Traceless Quadrupole moment (field-independent basis, Debye-Ang):
   XX=              7.6280   YY=             -4.8473   ZZ=             -2.7806
   XY=              1.6307   XZ=             -4.4248   YZ=              1.0563
 Octapole moment (field-independent basis, Debye-Ang**2):
  XXX=             44.9721  YYY=            -10.9880  ZZZ=             -6.0206  XYY=             -8.8326
  XXY=              1.4271  XXZ=            -16.3800  XZZ=             17.5938  YZZ=              2.7098
  YYZ=             -6.9007  XYZ=             -5.1463
 Hexadecapole moment (field-independent basis, Debye-Ang**3):
 XXXX=          -4303.0691 YYYY=          -3033.3814 ZZZZ=           -847.9705 XXXY=             78.7034
 XXXZ=            -74.2030 YYYX=             28.3105 YYYZ=              2.1503 ZZZX=            -15.7746
 ZZZY=             -1.8129 XXYY=          -1298.2681 XXZZ=           -882.8770 YYZZ=           -659.7380
 XXYZ=              9.5175 YYXZ=             -2.0536 ZZXY=            -10.1465
 N-N= 1.586638262271D+03 E-N=-5.015552162705D+03  KE= 7.902264250864D+02
 Unable to Open any file for archive entry.
 1\1\GINC-N2\SP\RB3LYP TD-FC\6-31G\C19H27N1\HPCMGAC13\13-Jun-2025\0\\# 
 td=(50-50,nstates=3) b3lyp/6-31g\\[No Title]\\0,1\C,0,4.517657,-1.902,
 0.107013\C,0,3.046457,-1.55833,0.017723\C,0,2.06528,-2.499615,0.358581
 \C,0,0.698881,-2.202271,0.276349\C,0,-0.31285,-3.276043,0.624907\C,0,0
 .283245,-0.908851,-0.137719\C,0,-1.179225,-0.640859,-0.331639\C,0,-1.9
 85936,-0.307478,0.698187\N,0,-3.35746,-0.049334,0.566764\C,0,-4.201642
 ,0.098782,1.74703\C,0,-3.922075,-0.148673,-0.711262\C,0,-3.209165,-0.4
 87064,-1.801128\C,0,-1.732923,-0.823491,-1.74714\C,0,1.264188,0.063537
 ,-0.462806\C,0,0.886439,1.465338,-0.920233\C,0,1.068536,2.648035,0.100
 512\C,0,0.536718,3.928537,-0.589548\C,0,0.259607,2.397268,1.392036\C,0
 ,2.553914,2.865616,0.469355\C,0,2.624353,-0.290836,-0.397651\H,0,4.707
 384,-2.937273,-0.198558\H,0,5.120343,-1.245781,-0.529849\H,0,4.89225,-
 1.794281,1.134431\H,0,2.369228,-3.494661,0.675242\H,0,0.184798,-4.2378
 86,0.785225\H,0,-0.869231,-3.030986,1.537629\H,0,-1.057208,-3.407377,-
 0.168734\H,0,-1.597408,-0.197644,1.704732\H,0,-3.642075,0.602795,2.540
 967\H,0,-5.071348,0.716866,1.503551\H,0,-4.562238,-0.865258,2.137605\H
 ,0,-4.979884,0.085559,-0.763682\H,0,-3.707327,-0.514212,-2.765081\H,0,
 -1.548547,-1.85851,-2.092245\H,0,-1.163173,-0.196897,-2.456332\H,0,1.4
 82002,1.717687,-1.809898\H,0,0.637031,4.796876,0.073387\H,0,1.094739,4
 .140959,-1.510396\H,0,-0.523234,3.823031,-0.851839\H,0,0.382703,3.2373
 14,2.087593\H,0,0.59783,1.485826,1.897821\H,0,-0.808049,2.289377,1.172
 182\H,0,3.166677,3.028996,-0.426726\H,0,2.65682,3.750231,1.110603\H,0,
 2.963287,2.008593,1.013269\H,0,3.371901,0.438986,-0.694125\H,0,-0.1638
 21,1.473384,-1.229529\\Version=ES64L-G16RevC.02\State=1-A\HF=-794.8280
 453\RMSD=7.329e-09\PG=C01 [X(C19H27N1)]\\@
 The archive entry for this job was punched.


 E PUR SI MUOVE    -- GALILEO GALILEI
 Job cpu time:       0 days  0 hours 27 minutes 35.1 seconds.
 Elapsed time:       0 days  0 hours  1 minutes 46.3 seconds.
 File lengths (MBytes):  RWF=    578 Int=      0 D2E=      0 Chk=     18 Scr=      2
 Normal termination of Gaussian 16 at Fri Jun 13 11:31:42 2025.
