 Entering Gaussian System, Link 0=g16
 Input=M1911.gjf
 Output=M1911.log
 Initial command:
 /hpc/softwares/Gaussian/g16/l1.exe "/hpc/home/hpcmgac13/pbs.11126.admin1.x8z/Gau-187363.inp" -scrdir="/hpc/home/hpcmgac13/pbs.11126.admin1.x8z/"
 Default linda workers: n2
 Default is to use  16 SMP processors on each worker.
 Entering Link 1 = /hpc/softwares/Gaussian/g16/l1.exe PID=    187364.
  
 Copyright (c) 1988-2021, Gaussian, Inc.  All Rights Reserved.
  
 This is part of the Gaussian(R) 16 program.  It is based on
 the Gaussian(R) 09 system (copyright 2009, Gaussian, Inc.),
 the Gaussian(R) 03 system (copyright 2003, Gaussian, Inc.),
 the Gaussian(R) 98 system (copyright 1998, Gaussian, Inc.),
 the Gaussian(R) 94 system (copyright 1995, Gaussian, Inc.),
 the Gaussian 92(TM) system (copyright 1992, Gaussian, Inc.),
 the Gaussian 90(TM) system (copyright 1990, Gaussian, Inc.),
 the Gaussian 88(TM) system (copyright 1988, Gaussian, Inc.),
 the Gaussian 86(TM) system (copyright 1986, Carnegie Mellon
 University), and the Gaussian 82(TM) system (copyright 1983,
 Carnegie Mellon University). Gaussian is a federally registered
 trademark of Gaussian, Inc.
  
 This software contains proprietary and confidential information,
 including trade secrets, belonging to Gaussian, Inc.
  
 This software is provided under written license and may be
 used, copied, transmitted, or stored only in accord with that
 written license.
  
 The following legend is applicable only to US Government
 contracts under FAR:
  
                    RESTRICTED RIGHTS LEGEND
  
 Use, reproduction and disclosure by the US Government is
 subject to restrictions as set forth in subparagraphs (a)
 and (c) of the Commercial Computer Software - Restricted
 Rights clause in FAR 52.227-19.
  
 Gaussian, Inc.
 340 Quinnipiac St., Bldg. 40, Wallingford CT 06492
  
  
 ---------------------------------------------------------------
 Warning -- This program may not be used in any manner that
 competes with the business of Gaussian, Inc. or will provide
 assistance to any competitor of Gaussian, Inc.  The licensee
 of this program is prohibited from giving any competitor of
 Gaussian, Inc. access to this program.  By using this program,
 the user acknowledges that Gaussian, Inc. is engaged in the
 business of creating and licensing software in the field of
 computational chemistry and represents and warrants to the
 licensee that it is not a competitor of Gaussian, Inc. and that
 it will not use this program in any manner prohibited above.
 ---------------------------------------------------------------
  

 Cite this work as:
 Gaussian 16, Revision C.02,
 M. J. Frisch, G. W. Trucks, H. B. Schlegel, G. E. Scuseria, 
 M. A. Robb, J. R. Cheeseman, G. Scalmani, V. Barone, 
 G. A. Petersson, H. Nakatsuji, X. Li, M. Caricato, A. V. Marenich, 
 J. Bloino, B. G. Janesko, R. Gomperts, B. Mennucci, H. P. Hratchian, 
 J. V. Ortiz, A. F. Izmaylov, J. L. Sonnenberg, D. Williams-Young, 
 F. Ding, F. Lipparini, F. Egidi, J. Goings, B. Peng, A. Petrone, 
 T. Henderson, D. Ranasinghe, V. G. Zakrzewski, J. Gao, N. Rega, 
 G. Zheng, W. Liang, M. Hada, M. Ehara, K. Toyota, R. Fukuda, 
 J. Hasegawa, M. Ishida, T. Nakajima, Y. Honda, O. Kitao, H. Nakai, 
 T. Vreven, K. Throssell, J. A. Montgomery, Jr., J. E. Peralta, 
 F. Ogliaro, M. J. Bearpark, J. J. Heyd, E. N. Brothers, K. N. Kudin, 
 V. N. Staroverov, T. A. Keith, R. Kobayashi, J. Normand, 
 K. Raghavachari, A. P. Rendell, J. C. Burant, S. S. Iyengar, 
 J. Tomasi, M. Cossi, J. M. Millam, M. Klene, C. Adamo, R. Cammi, 
 J. W. Ochterski, R. L. Martin, K. Morokuma, O. Farkas, 
 J. B. Foresman, and D. J. Fox, Gaussian, Inc., Wallingford CT, 2019.
 
 ******************************************
 Gaussian 16:  ES64L-G16RevC.02  7-Dec-2021
                13-Jun-2025 
 ******************************************
 SetLPE:    new flags="-opt 'Tsnet.Node.lindarsharg: ssh'  -nodelist 'n2.head.cm.mguif.local' -env GAUSS_MDEF=4294967296 -env GAUSS_EXEDIR="/hpc/softwares/Gaussian/g16/bsd:/hpc/softwares/Gaussian/g16""
 Will use up to    1 processors via Linda.
 ----------------------------------
 # td=(50-50,nstates=3) b3lyp/6-31g
 ----------------------------------
 1/38=1,172=1/1;
 2/12=2,17=6,18=5,40=1/2;
 3/5=1,6=6,11=9,25=1,30=1,74=-5/1,2,3,8;
 4//1;
 5/5=2,38=5/2;
 8/6=1,10=2,108=3/1;
 9/41=3,42=1,48=2,70=2/14;
 6/7=2,8=2,9=2,10=2/1;
 99/5=1,9=1/99;
 ----------
 [No Title]
 ----------
 Symbolic Z-matrix:
 Charge =  0 Multiplicity = 1
 C                     4.93295  -0.01336   0.29797 
 C                     3.42345  -0.00795   0.18756 
 C                     2.70817   1.19576   0.13827 
 C                     1.31179   1.22176   0.00467 
 C                     0.59054   2.55382  -0.0328 
 C                     0.59608   0.00243  -0.07787 
 C                    -0.89061   0.00788  -0.26138 
 C                    -1.72384   0.0378    0.80069 
 N                    -3.12174   0.07519   0.69892 
 C                    -3.95493  -0.11781   1.88056 
 C                    -3.6826    0.05278  -0.58452 
 C                    -2.94143   0.02341  -1.70718 
 C                    -1.42655  -0.00266  -1.69423 
 C                     1.3059   -1.22233  -0.02639 
 C                     0.57764  -2.54896  -0.09688 
 C                     2.70206  -1.20667   0.10831 
 H                     5.29854   0.86947   0.83376 
 H                     5.29276  -0.90296   0.82658 
 H                     5.40649  -0.01104  -0.69369 
 H                     3.24737   2.13779   0.20542 
 H                     1.30561   3.38255  -0.04625 
 H                    -0.049     2.64594  -0.91854 
 H                    -0.06193   2.68541   0.83856 
 H                    -3.48651   0.36189   2.74548 
 H                    -4.93114   0.35095   1.72349 
 H                    -4.1167   -1.18006   2.12091 
 H                    -4.76677   0.07337  -0.61036 
 H                    -3.44629   0.03269  -2.668 
 H                    -1.04279  -0.8859   -2.23721 
 H                    -1.0157    0.85795  -2.25371 
 H                     1.28445  -3.38364  -0.05361 
 H                    -0.13403  -2.66306   0.72892 
 H                     3.23636  -2.1528    0.15348 
 H                    -0.0001   -2.6474   -1.02412 
 H                    -1.34021   0.04717   1.81577 
 
                          Input orientation:                          
 ---------------------------------------------------------------------
 Center     Atomic      Atomic             Coordinates (Angstroms)
 Number     Number       Type             X           Y           Z
 ---------------------------------------------------------------------
      1          6           0        4.932945   -0.013364    0.297968
      2          6           0        3.423451   -0.007953    0.187555
      3          6           0        2.708172    1.195759    0.138271
      4          6           0        1.311793    1.221761    0.004674
      5          6           0        0.590543    2.553820   -0.032797
      6          6           0        0.596077    0.002431   -0.077870
      7          6           0       -0.890614    0.007876   -0.261377
      8          6           0       -1.723839    0.037795    0.800686
      9          7           0       -3.121738    0.075190    0.698924
     10          6           0       -3.954927   -0.117806    1.880560
     11          6           0       -3.682596    0.052777   -0.584520
     12          6           0       -2.941431    0.023409   -1.707181
     13          6           0       -1.426547   -0.002663   -1.694231
     14          6           0        1.305900   -1.222327   -0.026392
     15          6           0        0.577635   -2.548960   -0.096882
     16          6           0        2.702063   -1.206665    0.108311
     17          1           0        5.298536    0.869471    0.833760
     18          1           0        5.292760   -0.902957    0.826577
     19          1           0        5.406492   -0.011040   -0.693691
     20          1           0        3.247365    2.137792    0.205417
     21          1           0        1.305610    3.382555   -0.046253
     22          1           0       -0.049003    2.645937   -0.918535
     23          1           0       -0.061933    2.685409    0.838559
     24          1           0       -3.486509    0.361892    2.745478
     25          1           0       -4.931136    0.350954    1.723493
     26          1           0       -4.116697   -1.180059    2.120911
     27          1           0       -4.766771    0.073367   -0.610357
     28          1           0       -3.446287    0.032691   -2.668000
     29          1           0       -1.042788   -0.885899   -2.237208
     30          1           0       -1.015695    0.857948   -2.253705
     31          1           0        1.284449   -3.383638   -0.053606
     32          1           0       -0.134033   -2.663063    0.728924
     33          1           0        3.236358   -2.152797    0.153475
     34          1           0       -0.000096   -2.647399   -1.024122
     35          1           0       -1.340207    0.047165    1.815769
 ---------------------------------------------------------------------
                    Distance matrix (angstroms):
                    1          2          3          4          5
     1  C    0.000000
     2  C    1.513536   0.000000
     3  C    2.537143   1.401062   0.000000
     4  C    3.837225   2.450457   1.402996   0.000000
     5  C    5.055323   3.825781   2.521497   1.515251   0.000000
     6  C    4.353151   2.839824   2.435507   1.416273   2.551793
     7  C    5.850398   4.337389   3.810780   2.528813   2.954303
     8  C    6.675936   5.183880   4.628433   3.354172   3.518727
     9  N    8.065143   6.565661   5.963041   4.631717   4.523279
    10  C    9.028276   7.570918   7.011270   5.749063   5.608905
    11  C    8.660872   7.148125   6.532285   5.163099   4.981900
    12  C    8.125747   6.640989   6.057897   4.738819   4.656327
    13  C    6.664241   5.202271   4.678694   3.447318   3.655765
    14  C    3.836959   2.450408   2.800111   2.444293   3.843314
    15  C    5.055084   3.825740   4.314789   3.842869   5.103199
    16  C    2.537079   1.401282   2.402619   2.800151   4.315052
    17  H    1.095503   2.168732   2.701880   4.087250   5.074756
    18  H    1.095568   2.168801   3.399775   4.586725   5.899040
    19  H    1.098927   2.170036   3.070742   4.332906   5.496240
    20  H    2.734450   2.153032   1.087503   2.150779   2.699727
    21  H    4.980794   4.004430   2.604478   2.161403   1.094671
    22  H    5.776813   4.508271   3.289661   2.175398   1.096374
    23  H    5.703019   4.452629   3.222257   2.173650   1.096495
    24  H    8.776009   7.377486   6.772513   5.592413   5.398677
    25  H    9.973211   8.502179   7.847653   6.533514   6.198880
    26  H    9.304855   7.871819   7.493611   6.302040   6.382666
    27  H    9.742539   8.229399   7.595721   6.216592   5.931866
    28  H    8.888792   7.439701   6.863326   5.585374   5.440256
    29  H    6.549643   5.157282   4.903662   3.874573   4.399871
    30  H    6.531197   5.139606   4.438789   3.263409   3.223106
    31  H    4.979345   4.003591   4.799446   4.605849   5.977905
    32  H    5.734186   4.471955   4.828821   4.207946   5.321757
    33  H    2.734311   2.153258   3.389991   3.887639   5.402525
    34  H    5.746386   4.489489   4.843112   4.213060   5.327688
    35  H    6.454442   5.034536   4.530192   3.419480   3.664466
                    6          7          8          9         10
     6  C    0.000000
     7  C    1.497984   0.000000
     8  C    2.480952   1.350236   0.000000
     9  N    3.798796   2.429943   1.402097   0.000000
    10  C    4.955960   3.740816   2.483565   1.458669   0.000000
    11  C    4.308860   2.810979   2.399114   1.400819   2.485937
    12  C    3.894747   2.509271   2.787855   2.413407   3.730818
    13  C    2.589142   1.529839   2.512893   2.933756   4.380079
    14  C    1.416521   2.528496   3.383975   4.670504   5.703747
    15  C    2.551528   2.953003   3.576830   4.604870   5.510436
    16  C    2.435519   3.810395   4.649373   5.992381   6.974381
    17  H    4.867848   6.344072   7.071530   8.458728   9.364672
    18  H    4.867914   6.344082   7.079431   8.472122   9.340613
    19  H    4.849692   6.311957   7.285408   8.641616   9.709497
    20  H    3.416042   4.677319   5.429291   6.712924   7.730901
    21  H    3.453936   4.032138   4.591545   5.576322   6.605936
    22  H    2.847976   2.845968   3.544461   4.320488   5.543415
    23  H    2.910531   3.010939   3.126216   4.024320   4.909092
    24  H    4.976747   3.988129   2.644666   2.098485   1.094353
    25  H    5.823784   4.514779   3.352073   2.097548   1.094253
    26  H    5.333213   4.182595   2.991978   2.141878   1.101054
    27  H    5.389686   3.892386   3.354362   2.102464   2.626843
    28  H    4.801083   3.510543   3.872807   3.382797   4.579384
    29  H    2.852674   2.173913   3.247436   3.723788   5.101621
    30  H    2.839714   2.169709   3.240899   3.710276   5.165591
    31  H    3.455417   4.034406   4.635279   5.651927   6.469754
    32  H    2.879034   2.947376   3.134847   4.052815   4.733268
    33  H    3.416081   4.676805   5.460873   6.759203   7.670632
    34  H    2.876180   2.902635   3.675797   4.486204   5.520571
    35  H    2.708702   2.125609   1.085198   2.102851   2.620720
                   11         12         13         14         15
    11  C    0.000000
    12  C    1.345569   0.000000
    13  C    2.514814   1.515164   0.000000
    14  C    5.179043   4.734631   3.425717   0.000000
    15  C    5.015615   4.646931   3.612741   1.515023   0.000000
    16  C    6.544469   6.054595   4.663068   1.402734   2.521320
    17  H    9.129033   8.664252   7.237271   4.588750   5.902429
    18  H    9.135734   8.664871   7.232848   4.089573   5.078829
    19  H    9.089968   8.409291   6.905909   4.327512   5.487721
    20  H    7.279811   6.813945   5.480480   3.887598   5.402267
    21  H    6.021574   5.663912   4.651904   4.604925   5.976235
    22  H    4.476499   3.983184   3.084544   4.194657   5.296673
    23  H    4.697351   4.675312   3.937376   4.229599   5.355625
    24  H    3.350058   4.498650   4.907888   5.758489   5.750594
    25  H    2.640963   3.979414   4.907955   6.666178   6.486126
    26  H    3.004611   4.181372   4.814403   5.832431   5.369288
    27  H    1.084678   2.130114   3.512501   6.236760   5.975193
    28  H    2.096935   1.085421   2.242504   5.580004   5.428399
    29  H    3.252857   2.170856   1.105532   3.243027   3.157933
    30  H    3.247590   2.168779   1.105650   3.831223   4.335621
    31  H    6.063197   5.674534   4.633804   2.161589   1.094599
    32  H    4.657598   4.586199   3.823611   2.172471   1.096105
    33  H    7.299392   6.809037   5.457085   2.150534   2.699710
    34  H    4.587484   4.031282   3.078707   2.175298   1.096922
    35  H    3.353834   3.869840   3.511415   3.465119   3.751828
                   16         17         18         19         20
    16  C    0.000000
    17  H    3.402688   0.000000
    18  H    2.705523   1.772452   0.000000
    19  H    3.063766   1.766369   1.766258   0.000000
    20  H    3.390011   2.492139   3.716939   3.176115   0.000000
    21  H    4.799470   4.799320   5.918176   5.362173   2.320169
    22  H    4.844101   5.901063   6.646390   6.072274   3.519591
    23  H    4.829200   5.659707   6.445871   6.286676   3.413533
    24  H    6.907492   9.004961   9.075108   9.542140   7.412880
    25  H    7.956175  10.281375  10.339478  10.622635   8.507951
    26  H    7.109624   9.721314   9.502103   9.998986   8.301004
    27  H    7.611731  10.199493  10.208435  10.173954   8.315871
    28  H    6.859017   9.456979   9.458248   9.070364   7.582411
    29  H    4.430379   7.261168   7.037488   6.688874   5.789174
    30  H    4.864511   7.028662   7.237785   6.665829   5.085171
    31  H    2.602894   5.915171   4.795316   5.364267   5.865690
    32  H    3.248030   6.480941   5.705926   6.305115   5.895432
    33  H    1.087509   3.721488   2.498791   3.164537   4.290918
    34  H    3.264932   6.625376   5.872179   6.024182   5.912345
    35  H    4.563710   6.761171   6.773292   7.198522   5.292426
                   21         22         23         24         25
    21  H    0.000000
    22  H    1.771569   0.000000
    23  H    1.771745   1.757585   0.000000
    24  H    6.315265   5.518904   4.556621   0.000000
    25  H    7.156787   6.006870   5.471922   1.769610   0.000000
    26  H    7.410497   6.357878   5.746945   1.778998   1.779116
    27  H    6.938498   5.382418   5.572937   3.603324   2.356040
    28  H    6.377748   4.629387   5.548578   5.423627   4.646642
    29  H    5.341812   3.898766   4.814214   5.688226   5.686493
    30  H    4.078596   2.431888   3.716365   5.598466   5.604090
    31  H    6.766230   6.235541   6.280289   6.680262   7.465839
    32  H    6.262824   5.559391   5.350081   4.945295   5.752014
    33  H    5.865816   5.913599   5.895447   7.631453   8.685717
    34  H    6.246714   5.294615   5.649092   5.951537   6.391765
    35  H    4.646752   3.987135   3.090187   2.360090   3.604937
                   26         27         28         29         30
    26  H    0.000000
    27  H    3.074654   0.000000
    28  H    4.985367   2.445246   0.000000
    29  H    5.341222   4.175510   2.608869   0.000000
    30  H    5.736458   4.169740   2.600090   1.744135   0.000000
    31  H    6.225485   6.991289   6.394234   4.052512   5.303032
    32  H    4.471973   5.544726   5.456850   3.575204   4.697970
    33  H    7.673620   8.342021   7.575937   5.062755   5.739256
    34  H    5.384303   5.504086   4.664917   2.379426   3.851074
    35  H    3.050916   4.198585   4.953783   4.169615   4.162126
                   31         32         33         34         35
    31  H    0.000000
    32  H    1.773041   0.000000
    33  H    2.316851   3.457029   0.000000
    34  H    1.770312   1.758225   3.479368   0.000000
    35  H    4.706781   3.159339   5.343033   4.137820   0.000000
 Stoichiometry    C15H19N
 Framework group  C1[X(C15H19N)]
 Deg. of freedom    99
 Full point group                 C1      NOp   1
 Largest Abelian subgroup         C1      NOp   1
 Largest concise Abelian subgroup C1      NOp   1
                         Standard orientation:                         
 ---------------------------------------------------------------------
 Center     Atomic      Atomic             Coordinates (Angstroms)
 Number     Number       Type             X           Y           Z
 ---------------------------------------------------------------------
      1          6           0        4.932945    0.013364   -0.297968
      2          6           0        3.423451    0.007953   -0.187555
      3          6           0        2.708172   -1.195759   -0.138271
      4          6           0        1.311793   -1.221761   -0.004674
      5          6           0        0.590543   -2.553820    0.032797
      6          6           0        0.596077   -0.002431    0.077870
      7          6           0       -0.890614   -0.007876    0.261377
      8          6           0       -1.723839   -0.037795   -0.800686
      9          7           0       -3.121738   -0.075190   -0.698924
     10          6           0       -3.954927    0.117806   -1.880560
     11          6           0       -3.682596   -0.052777    0.584520
     12          6           0       -2.941431   -0.023409    1.707181
     13          6           0       -1.426547    0.002663    1.694231
     14          6           0        1.305900    1.222327    0.026392
     15          6           0        0.577635    2.548960    0.096882
     16          6           0        2.702063    1.206665   -0.108311
     17          1           0        5.298536   -0.869471   -0.833760
     18          1           0        5.292760    0.902957   -0.826577
     19          1           0        5.406492    0.011040    0.693691
     20          1           0        3.247365   -2.137792   -0.205417
     21          1           0        1.305610   -3.382555    0.046253
     22          1           0       -0.049003   -2.645937    0.918535
     23          1           0       -0.061933   -2.685409   -0.838559
     24          1           0       -3.486509   -0.361892   -2.745478
     25          1           0       -4.931136   -0.350954   -1.723493
     26          1           0       -4.116697    1.180059   -2.120911
     27          1           0       -4.766771   -0.073367    0.610357
     28          1           0       -3.446287   -0.032691    2.668000
     29          1           0       -1.042788    0.885899    2.237208
     30          1           0       -1.015695   -0.857948    2.253705
     31          1           0        1.284449    3.383638    0.053606
     32          1           0       -0.134033    2.663063   -0.728924
     33          1           0        3.236358    2.152797   -0.153475
     34          1           0       -0.000096    2.647399    1.024122
     35          1           0       -1.340207   -0.047165   -1.815769
 ---------------------------------------------------------------------
 Rotational constants (GHZ):           1.0815739           0.2972807           0.2779725
 Standard basis: 6-31G (6D, 7F)
 There are   182 symmetry adapted cartesian basis functions of A   symmetry.
 There are   182 symmetry adapted basis functions of A   symmetry.
   182 basis functions,   428 primitive gaussians,   182 cartesian basis functions
    58 alpha electrons       58 beta electrons
       nuclear repulsion energy      1059.0142625697 Hartrees.
 NAtoms=   35 NActive=   35 NUniq=   35 SFac= 1.00D+00 NAtFMM=   60 NAOKFM=F Big=F
 Integral buffers will be    131072 words long.
 Regular integral format.
 Two-electron integral symmetry is turned on.
 One-electron integrals computed using PRISM.
 NBasis=   182 RedAO= T EigKep=  4.38D-04  NBF=   182
 NBsUse=   182 1.00D-06 EigRej= -1.00D+00 NBFU=   182
 ExpMin= 1.61D-01 ExpMax= 4.17D+03 ExpMxC= 6.27D+02 IAcc=3 IRadAn=         5 AccDes= 0.00D+00
 Harris functional with IExCor=  402 and IRadAn=       5 diagonalized for initial guess.
 HarFok:  IExCor=  402 AccDes= 0.00D+00 IRadAn=         5 IDoV= 1 UseB2=F ITyADJ=14
 ICtDFT=  3500011 ScaDFX=  1.000000  1.000000  1.000000  1.000000
 FoFCou: FMM=F IPFlag=           0 FMFlag=      100000 FMFlg1=           0
         NFxFlg=           0 DoJE=T BraDBF=F KetDBF=T FulRan=T
         wScrn=  0.000000 ICntrl=       500 IOpCl=  0 I1Cent=   200000004 NGrid=           0
         NMat0=    1 NMatS0=      1 NMatT0=    0 NMatD0=    1 NMtDS0=    0 NMtDT0=    0
 Petite list used in FoFCou.
 Requested convergence on RMS density matrix=1.00D-08 within 128 cycles.
 Requested convergence on MAX density matrix=1.00D-06.
 Requested convergence on             energy=1.00D-06.
 No special actions if energy rises.
 Integral accuracy reduced to 1.0D-05 until final iterations.
 Initial convergence to 1.0D-05 achieved.  Increase integral accuracy.
 SCF Done:  E(RB3LYP) =  -637.615762327     A.U. after   15 cycles
            NFock= 15  Conv=0.59D-08     -V/T= 2.0058
 DoSCS=F DFT=T ScalE2(SS,OS)=  1.000000  1.000000
 ExpMin= 1.61D-01 ExpMax= 4.17D+03 ExpMxC= 6.27D+02 IAcc=3 IRadAn=         5 AccDes= 0.00D+00
 HarFok:  IExCor=  205 AccDes= 0.00D+00 IRadAn=         5 IDoV=-2 UseB2=F ITyADJ=14
 ICtDFT= 12500011 ScaDFX=  1.000000  1.000000  1.000000  1.000000
 Range of M.O.s used for correlation:    17   182
 NBasis=   182 NAE=    58 NBE=    58 NFC=    16 NFV=     0
 NROrb=    166 NOA=    42 NOB=    42 NVA=   124 NVB=   124

 **** Warning!!: The largest alpha MO coefficient is  0.13974142D+02

 Keep R1, R2, and R3 ints in memory in canonical form, NReq=486810369.
 Orbital symmetries:
       Occupied  (A) (A) (A) (A) (A) (A) (A) (A) (A) (A) (A) (A)
                 (A) (A) (A) (A) (A) (A) (A) (A) (A) (A) (A) (A)
                 (A) (A) (A) (A) (A) (A) (A) (A) (A) (A) (A) (A)
                 (A) (A) (A) (A) (A) (A) (A) (A) (A) (A) (A) (A)
                 (A) (A) (A) (A) (A) (A) (A) (A) (A) (A)
       Virtual   (A) (A) (A) (A) (A) (A) (A) (A) (A) (A) (A) (A)
                 (A) (A) (A) (A) (A) (A) (A) (A) (A) (A) (A) (A)
                 (A) (A) (A) (A) (A) (A) (A) (A) (A) (A) (A) (A)
                 (A) (A) (A) (A) (A) (A) (A) (A) (A) (A) (A) (A)
                 (A) (A) (A) (A) (A) (A) (A) (A) (A) (A) (A) (A)
                 (A) (A) (A) (A) (A) (A) (A) (A) (A) (A) (A) (A)
                 (A) (A) (A) (A) (A) (A) (A) (A) (A) (A) (A) (A)
                 (A) (A) (A) (A) (A) (A) (A) (A) (A) (A) (A) (A)
                 (A) (A) (A) (A) (A) (A) (A) (A) (A) (A) (A) (A)
                 (A) (A) (A) (A) (A) (A) (A) (A) (A) (A) (A) (A)
                 (A) (A) (A) (A)
    24 initial guesses have been made.
 Convergence on wavefunction:    0.001000000000000
 Iteration     1 Dimension    24 NMult     0 NNew     24
 CISAX will form    24 AO SS matrices at one time.
 New state      1 was old state      6
 New state      3 was old state      1
 New state      4 was old state      8
 New state      5 was old state      4
 New state      6 was old state      3
 New state      7 was old state     10
 New state      8 was old state     18
 New state      9 was old state     12
 New state     10 was old state      5
 New state     11 was old state     14
 New state     12 was old state      9
 Vector   5 SDiff=6.78D+00 TDiff=7.45D+00 assumed to be singlet.
 Vector  11 SDiff=6.77D+00 TDiff=7.30D+00 assumed to be singlet.
 Iteration     2 Dimension    36 NMult    24 NNew     12
 New state      2 was old state      4
 New state      3 was old state      2
 New state      4 was old state      3
 New state      5 was old state      6
 New state      6 was old state     10
 Iteration     3 Dimension    48 NMult    36 NNew     12
 Iteration     4 Dimension    60 NMult    48 NNew     12
 Iteration     5 Dimension    70 NMult    60 NNew     10
 Iteration     6 Dimension    74 NMult    70 NNew      4
 Iteration     7 Dimension    76 NMult    74 NNew      2
 Iteration     8 Dimension    78 NMult    76 NNew      2
 ***********************************************************************
 Excited states from <AA,BB:AA,BB> singles matrix:
 ***********************************************************************
 
 Ground to excited state transition densities written to RWF  633
 Ground to excited state transition electric dipole moments (Au):
       state          X           Y           Z        Dip. S.      Osc.
         1         0.0000      0.0000      0.0000      0.0000      0.0000
         2        -0.0000     -0.0000     -0.0000      0.0000      0.0000
         3        -0.0000     -0.0000     -0.0000      0.0000      0.0000
         4        -0.1739     -0.0173      0.0382      0.0320      0.0032
         5        -0.6394     -0.0119      0.2565      0.4747      0.0498
         6        -0.5198      0.0174      0.1795      0.3027      0.0323
 Ground to excited state transition velocity dipole moments (Au):
       state          X           Y           Z        Dip. S.      Osc.
         1         0.0000      0.0000     -0.0000      0.0000      0.0000
         2         0.0000      0.0000      0.0000      0.0000      0.0000
         3        -0.0000      0.0000      0.0000      0.0000      0.0000
         4         0.0233      0.0124     -0.0055      0.0007      0.0033
         5         0.0983      0.0003     -0.0428      0.0115      0.0488
         6         0.0670     -0.0034     -0.0199      0.0049      0.0204
 Ground to excited state transition magnetic dipole moments (Au):
       state          X           Y           Z
         1         0.0000     -0.0000     -0.0000
         2        -0.0000     -0.0000     -0.0000
         3        -0.0000      0.0000      0.0000
         4         0.1000     -0.1730     -0.0973
         5         0.0336     -1.3051      0.0590
         6         0.0333     -0.8133      0.0517
 Ground to excited state transition velocity quadrupole moments (Au):
       state          XX          YY          ZZ          XY          XZ          YZ
         1         0.0000     -0.0000      0.0000      0.0000      0.0000     -0.0000
         2        -0.0000     -0.0000      0.0000     -0.0000      0.0000      0.0000
         3         0.0000     -0.0000     -0.0000     -0.0000     -0.0000      0.0000
         4        -0.0338      0.0249     -0.0422     -0.0193      0.0337      0.0088
         5        -0.1745      0.0965     -0.2672      0.0079      0.2697      0.0042
         6        -0.1194      0.0898     -0.1929      0.0052      0.2041      0.0018
 <0|del|b> * <b|rxdel|0> + <0|del|b> * <b|delr+rdel|0>
 Rotatory Strengths (R) in cgs (10**-40 erg-esu-cm/Gauss)
       state          XX          YY          ZZ    R(velocity)    E-M Angle
         1         0.0000      0.0000      0.0000      0.0000       90.00
         2        -0.0000      0.0000     -0.0000     -0.0000       90.00
         3         0.0000      0.0000     -0.0000      0.0000       90.00
         4        -4.5685      7.0849      0.9539      1.1568       83.04
         5        -7.3598      3.4480      5.9020      0.6634       89.82
         6         5.0338      3.1602      9.1820      5.7920       86.05
 1/2[<0|r|b>*<b|rxdel|0> + (<0|rxdel|b>*<b|r|0>)*]
 Rotatory Strengths (R) in cgs (10**-40 erg-esu-cm/Gauss)
       state          XX          YY          ZZ     R(length)
         1        -0.0000      0.0000      0.0000      0.0000
         2        -0.0000     -0.0000     -0.0000     -0.0000
         3        -0.0000      0.0000      0.0000      0.0000
         4        12.2941     -2.1144      2.6261      4.2686
         5        15.2130    -10.9898    -10.6977     -2.1581
         6        12.2501     10.0208     -6.5645      5.2355
  1/2[<0|del|b>*<b|r|0> + (<0|r|b>*<b|del|0>)*] (Au)
       state          X           Y           Z        Dip. S.   Osc.(frdel)
         1         0.0000      0.0000     -0.0000      0.0000      0.0000
         2        -0.0000     -0.0000     -0.0000      0.0000      0.0000
         3         0.0000     -0.0000     -0.0000      0.0000      0.0000
         4        -0.0041     -0.0002     -0.0002      0.0045      0.0030
         5        -0.0629     -0.0000     -0.0110      0.0738      0.0492
         6        -0.0348     -0.0001     -0.0036      0.0385      0.0256

 Excitation energies and oscillator strengths:
 
 Excited State   1:      Triplet-A      2.8612 eV  433.33 nm  f=0.0000  <S**2>=2.000
      55 -> 62         0.14716
      58 -> 59         0.12434
      58 -> 60         0.46971
      58 -> 61         0.49363
 This state for optimization and/or second-order correction.
 Total Energy, E(TD-HF/TD-DFT) =  -637.510615640    
 Copying the excited state density for this state as the 1-particle RhoCI density.
 
 Excited State   2:      Triplet-A      3.6433 eV  340.31 nm  f=0.0000  <S**2>=2.000
      56 -> 60        -0.32091
      56 -> 61         0.28684
      57 -> 59         0.55180
 
 Excited State   3:      Triplet-A      3.9742 eV  311.97 nm  f=0.0000  <S**2>=2.000
      55 -> 60         0.28196
      55 -> 61         0.30208
      58 -> 59        -0.15354
      58 -> 62         0.53170
 
 Excited State   4:      Singlet-A      4.0307 eV  307.60 nm  f=0.0032  <S**2>=0.000
      58 -> 59         0.70405
 
 Excited State   5:      Singlet-A      4.2783 eV  289.80 nm  f=0.0498  <S**2>=0.000
      58 -> 60         0.68860
      58 -> 61         0.15006
 
 Excited State   6:      Singlet-A      4.3497 eV  285.04 nm  f=0.0323  <S**2>=0.000
      58 -> 60        -0.15173
      58 -> 61         0.68879
 SavETr:  write IOETrn=   770 NScale= 10 NData=  16 NLR=1 NState=    6 LETran=     118.

 **********************************************************************

            Population analysis using the SCF Density.

 **********************************************************************

 Orbital symmetries:
       Occupied  (A) (A) (A) (A) (A) (A) (A) (A) (A) (A) (A) (A)
                 (A) (A) (A) (A) (A) (A) (A) (A) (A) (A) (A) (A)
                 (A) (A) (A) (A) (A) (A) (A) (A) (A) (A) (A) (A)
                 (A) (A) (A) (A) (A) (A) (A) (A) (A) (A) (A) (A)
                 (A) (A) (A) (A) (A) (A) (A) (A) (A) (A)
       Virtual   (A) (A) (A) (A) (A) (A) (A) (A) (A) (A) (A) (A)
                 (A) (A) (A) (A) (A) (A) (A) (A) (A) (A) (A) (A)
                 (A) (A) (A) (A) (A) (A) (A) (A) (A) (A) (A) (A)
                 (A) (A) (A) (A) (A) (A) (A) (A) (A) (A) (A) (A)
                 (A) (A) (A) (A) (A) (A) (A) (A) (A) (A) (A) (A)
                 (A) (A) (A) (A) (A) (A) (A) (A) (A) (A) (A) (A)
                 (A) (A) (A) (A) (A) (A) (A) (A) (A) (A) (A) (A)
                 (A) (A) (A) (A) (A) (A) (A) (A) (A) (A) (A) (A)
                 (A) (A) (A) (A) (A) (A) (A) (A) (A) (A) (A) (A)
                 (A) (A) (A) (A) (A) (A) (A) (A) (A) (A) (A) (A)
                 (A) (A) (A) (A)
 The electronic state is 1-A.
 Alpha  occ. eigenvalues --  -14.35391 -10.21870 -10.20766 -10.20618 -10.18252
 Alpha  occ. eigenvalues --  -10.18245 -10.18195 -10.17805 -10.17591 -10.17228
 Alpha  occ. eigenvalues --  -10.16980 -10.16574 -10.16568 -10.16503 -10.16464
 Alpha  occ. eigenvalues --  -10.16400  -0.95316  -0.85351  -0.80222  -0.77344
 Alpha  occ. eigenvalues --   -0.76923  -0.74827  -0.71198  -0.69168  -0.67470
 Alpha  occ. eigenvalues --   -0.66842  -0.62918  -0.60943  -0.56343  -0.55560
 Alpha  occ. eigenvalues --   -0.51619  -0.48972  -0.47560  -0.47353  -0.45337
 Alpha  occ. eigenvalues --   -0.45088  -0.42471  -0.41966  -0.41519  -0.41319
 Alpha  occ. eigenvalues --   -0.40453  -0.40088  -0.39799  -0.39666  -0.39267
 Alpha  occ. eigenvalues --   -0.38907  -0.38362  -0.35803  -0.35501  -0.34593
 Alpha  occ. eigenvalues --   -0.33378  -0.32382  -0.31901  -0.30917  -0.25197
 Alpha  occ. eigenvalues --   -0.22439  -0.21913  -0.16389
 Alpha virt. eigenvalues --    0.01157   0.01866   0.02081   0.07231   0.08755
 Alpha virt. eigenvalues --    0.10600   0.11171   0.12372   0.13145   0.13245
 Alpha virt. eigenvalues --    0.13419   0.14279   0.14723   0.16141   0.16656
 Alpha virt. eigenvalues --    0.17102   0.17143   0.18225   0.18290   0.18463
 Alpha virt. eigenvalues --    0.19645   0.20718   0.21096   0.23007   0.23776
 Alpha virt. eigenvalues --    0.25085   0.25318   0.26276   0.27694   0.28145
 Alpha virt. eigenvalues --    0.29665   0.33623   0.36033   0.37638   0.38991
 Alpha virt. eigenvalues --    0.39212   0.39449   0.42505   0.44250   0.48512
 Alpha virt. eigenvalues --    0.50444   0.51173   0.52873   0.54172   0.54652
 Alpha virt. eigenvalues --    0.55789   0.56683   0.57424   0.58242   0.58552
 Alpha virt. eigenvalues --    0.58896   0.59863   0.60777   0.61164   0.61907
 Alpha virt. eigenvalues --    0.63803   0.64247   0.64846   0.65116   0.67490
 Alpha virt. eigenvalues --    0.68815   0.69503   0.70649   0.72174   0.72299
 Alpha virt. eigenvalues --    0.74761   0.76074   0.76252   0.76607   0.77689
 Alpha virt. eigenvalues --    0.78785   0.79063   0.80427   0.80570   0.81650
 Alpha virt. eigenvalues --    0.82387   0.85954   0.86572   0.87245   0.88007
 Alpha virt. eigenvalues --    0.88505   0.89534   0.90371   0.92431   0.92835
 Alpha virt. eigenvalues --    0.94039   0.95819   0.96495   0.96789   0.97191
 Alpha virt. eigenvalues --    0.97363   0.98285   0.98459   0.99107   0.99704
 Alpha virt. eigenvalues --    1.01028   1.02303   1.05258   1.05830   1.07289
 Alpha virt. eigenvalues --    1.09268   1.09377   1.12083   1.15072   1.16100
 Alpha virt. eigenvalues --    1.17788   1.20208   1.22921   1.25838   1.26367
 Alpha virt. eigenvalues --    1.30585   1.32474   1.34419   1.42233   1.45255
 Alpha virt. eigenvalues --    1.47220   1.51632   1.52913   1.56422   1.62061
 Alpha virt. eigenvalues --    1.63675   1.70580   1.93400   1.96231
          Condensed to atoms (all electrons):
               1          2          3          4          5          6
     1  C    5.169217   0.303799  -0.043328   0.005671  -0.000225   0.001088
     2  C    0.303799   4.798159   0.522715  -0.041989   0.006284  -0.029602
     3  C   -0.043328   0.522715   5.067738   0.497114  -0.044952  -0.044700
     4  C    0.005671  -0.041989   0.497114   4.909908   0.314305   0.493337
     5  C   -0.000225   0.006284  -0.044952   0.314305   5.168900  -0.054672
     6  C    0.001088  -0.029602  -0.044700   0.493337  -0.054672   5.038543
     7  C    0.000005   0.000088   0.007922  -0.073277  -0.006713   0.353480
     8  C   -0.000000   0.000031  -0.000020  -0.005698   0.001831  -0.013956
     9  N   -0.000000  -0.000000   0.000001   0.000118  -0.000190   0.003167
    10  C   -0.000000   0.000000  -0.000000  -0.000001   0.000001  -0.000066
    11  C    0.000000   0.000000   0.000000   0.000009   0.000038   0.000805
    12  C    0.000000   0.000000   0.000001   0.000049   0.000010   0.006047
    13  C   -0.000000   0.000006  -0.000024  -0.000993  -0.001367  -0.044611
    14  C    0.005650  -0.041895  -0.046836  -0.043735   0.006124   0.494464
    15  C   -0.000225   0.006291   0.000801   0.006115  -0.000169  -0.055077
    16  C   -0.043728   0.521937  -0.053152  -0.047093   0.000800  -0.044478
    17  H    0.365857  -0.034135  -0.001866   0.000317  -0.000001  -0.000004
    18  H    0.365869  -0.034106   0.002364  -0.000195   0.000002  -0.000003
    19  H    0.365611  -0.032060  -0.002389  -0.000140   0.000003   0.000022
    20  H   -0.006422  -0.042151   0.343183  -0.033320  -0.007360   0.004527
    21  H   -0.000003   0.000432  -0.001891  -0.036109   0.359085   0.004358
    22  H    0.000002  -0.000186   0.000961  -0.029497   0.364449  -0.006428
    23  H    0.000003  -0.000234  -0.000436  -0.030995   0.365469  -0.003626
    24  H   -0.000000   0.000000   0.000000  -0.000005   0.000001   0.000003
    25  H    0.000000  -0.000000   0.000000  -0.000000   0.000000   0.000002
    26  H    0.000000   0.000000  -0.000000   0.000001  -0.000000   0.000001
    27  H   -0.000000  -0.000000   0.000000   0.000000   0.000000  -0.000010
    28  H   -0.000000  -0.000000  -0.000000  -0.000001  -0.000001  -0.000183
    29  H    0.000000  -0.000007   0.000027  -0.000841   0.000166  -0.002072
    30  H   -0.000000  -0.000010  -0.000098   0.003782  -0.001112  -0.002935
    31  H   -0.000003   0.000419  -0.000009  -0.000136   0.000001   0.004364
    32  H    0.000003  -0.000232   0.000010   0.000155   0.000001  -0.003758
    33  H   -0.006335  -0.042292   0.004864   0.000800   0.000010   0.004516
    34  H    0.000002  -0.000181   0.000024  -0.000097   0.000003  -0.006078
    35  H   -0.000000  -0.000013  -0.000031   0.000847   0.000021  -0.002685
               7          8          9         10         11         12
     1  C    0.000005  -0.000000  -0.000000  -0.000000   0.000000   0.000000
     2  C    0.000088   0.000031  -0.000000   0.000000   0.000000   0.000000
     3  C    0.007922  -0.000020   0.000001  -0.000000   0.000000   0.000001
     4  C   -0.073277  -0.005698   0.000118  -0.000001   0.000009   0.000049
     5  C   -0.006713   0.001831  -0.000190   0.000001   0.000038   0.000010
     6  C    0.353480  -0.013956   0.003167  -0.000066   0.000805   0.006047
     7  C    5.008767   0.627478  -0.036188   0.003884  -0.005440  -0.014119
     8  C    0.627478   4.831228   0.219281  -0.032548  -0.054915  -0.013116
     9  N   -0.036188   0.219281   7.233822   0.261950   0.260914  -0.050665
    10  C    0.003884  -0.032548   0.261950   4.916918  -0.033839   0.003906
    11  C   -0.005440  -0.054915   0.260914  -0.033839   4.731909   0.667223
    12  C   -0.014119  -0.013116  -0.050665   0.003906   0.667223   5.002615
    13  C    0.333667  -0.052505  -0.031764   0.000048  -0.044573   0.312415
    14  C   -0.075451  -0.005010   0.000158  -0.000001   0.000006   0.000088
    15  C   -0.007202   0.001197  -0.000151   0.000000   0.000038   0.000026
    16  C    0.008028  -0.000043   0.000001  -0.000000   0.000000   0.000000
    17  H   -0.000000  -0.000000   0.000000  -0.000000   0.000000  -0.000000
    18  H   -0.000000  -0.000000   0.000000  -0.000000   0.000000  -0.000000
    19  H   -0.000000   0.000000  -0.000000   0.000000  -0.000000   0.000000
    20  H   -0.000213  -0.000004  -0.000000   0.000000  -0.000000  -0.000000
    21  H    0.000645   0.000102  -0.000001   0.000000  -0.000000   0.000002
    22  H    0.001362  -0.000138   0.000034  -0.000001   0.000023  -0.000308
    23  H    0.002139   0.001977  -0.000112  -0.000002   0.000002   0.000007
    24  H    0.000412  -0.000921  -0.043998   0.378611   0.002371  -0.000213
    25  H   -0.000214   0.002298  -0.043359   0.378494  -0.001086   0.000414
    26  H    0.000129   0.001720  -0.058041   0.369568   0.001534   0.000184
    27  H   -0.000464   0.004590  -0.060193  -0.003195   0.368867  -0.031657
    28  H    0.003064   0.000855   0.004579  -0.000138  -0.032821   0.356784
    29  H   -0.044922  -0.000573   0.001504   0.000021  -0.000520  -0.041994
    30  H   -0.049147  -0.000154   0.000958  -0.000004   0.000002  -0.045387
    31  H    0.000629   0.000084  -0.000001  -0.000000  -0.000000   0.000001
    32  H    0.003595   0.002577  -0.000184   0.000001   0.000006   0.000022
    33  H   -0.000220  -0.000003  -0.000000   0.000000  -0.000000  -0.000000
    34  H    0.000736  -0.000186   0.000043  -0.000000   0.000005  -0.000339
    35  H   -0.038608   0.368147  -0.057373  -0.003196   0.003973  -0.000405
              13         14         15         16         17         18
     1  C   -0.000000   0.005650  -0.000225  -0.043728   0.365857   0.365869
     2  C    0.000006  -0.041895   0.006291   0.521937  -0.034135  -0.034106
     3  C   -0.000024  -0.046836   0.000801  -0.053152  -0.001866   0.002364
     4  C   -0.000993  -0.043735   0.006115  -0.047093   0.000317  -0.000195
     5  C   -0.001367   0.006124  -0.000169   0.000800  -0.000001   0.000002
     6  C   -0.044611   0.494464  -0.055077  -0.044478  -0.000004  -0.000003
     7  C    0.333667  -0.075451  -0.007202   0.008028  -0.000000  -0.000000
     8  C   -0.052505  -0.005010   0.001197  -0.000043  -0.000000  -0.000000
     9  N   -0.031764   0.000158  -0.000151   0.000001   0.000000   0.000000
    10  C    0.000048  -0.000001   0.000000  -0.000000  -0.000000  -0.000000
    11  C   -0.044573   0.000006   0.000038   0.000000   0.000000   0.000000
    12  C    0.312415   0.000088   0.000026   0.000000  -0.000000  -0.000000
    13  C    5.142387  -0.001735  -0.001395  -0.000010   0.000000   0.000000
    14  C   -0.001735   4.910041   0.314349   0.498290  -0.000197   0.000308
    15  C   -0.001395   0.314349   5.172348  -0.044641   0.000002  -0.000001
    16  C   -0.000010   0.498290  -0.044641   5.067581   0.002407  -0.001919
    17  H    0.000000  -0.000197   0.000002   0.002407   0.582770  -0.029483
    18  H    0.000000   0.000308  -0.000001  -0.001919  -0.029483   0.582924
    19  H   -0.000000  -0.000128   0.000003  -0.002395  -0.032491  -0.032607
    20  H    0.000002   0.000786   0.000010   0.004903   0.004217   0.000061
    21  H    0.000023  -0.000134   0.000001  -0.000009   0.000003   0.000000
    22  H    0.001136  -0.000042   0.000002   0.000022   0.000000  -0.000000
    23  H   -0.000020   0.000081   0.000003   0.000012  -0.000000  -0.000000
    24  H   -0.000006   0.000003  -0.000000  -0.000000   0.000000  -0.000000
    25  H   -0.000002   0.000000  -0.000000   0.000000   0.000000   0.000000
    26  H    0.000023  -0.000003   0.000001   0.000000  -0.000000   0.000000
    27  H    0.005458   0.000000   0.000000   0.000000   0.000000   0.000000
    28  H   -0.037100   0.000000  -0.000002  -0.000000   0.000000   0.000000
    29  H    0.357299   0.003724  -0.001446  -0.000101   0.000000  -0.000000
    30  H    0.365043  -0.000881   0.000198   0.000030  -0.000000   0.000000
    31  H    0.000034  -0.035984   0.359128  -0.001897   0.000000   0.000002
    32  H   -0.000030  -0.031728   0.364972   0.000041  -0.000000  -0.000000
    33  H    0.000001  -0.032996  -0.007467   0.343013   0.000062   0.004149
    34  H    0.000830  -0.029550   0.363633   0.000509  -0.000000   0.000000
    35  H    0.005716   0.000939   0.000013  -0.000030   0.000000   0.000000
              19         20         21         22         23         24
     1  C    0.365611  -0.006422  -0.000003   0.000002   0.000003  -0.000000
     2  C   -0.032060  -0.042151   0.000432  -0.000186  -0.000234   0.000000
     3  C   -0.002389   0.343183  -0.001891   0.000961  -0.000436   0.000000
     4  C   -0.000140  -0.033320  -0.036109  -0.029497  -0.030995  -0.000005
     5  C    0.000003  -0.007360   0.359085   0.364449   0.365469   0.000001
     6  C    0.000022   0.004527   0.004358  -0.006428  -0.003626   0.000003
     7  C   -0.000000  -0.000213   0.000645   0.001362   0.002139   0.000412
     8  C    0.000000  -0.000004   0.000102  -0.000138   0.001977  -0.000921
     9  N   -0.000000  -0.000000  -0.000001   0.000034  -0.000112  -0.043998
    10  C    0.000000   0.000000   0.000000  -0.000001  -0.000002   0.378611
    11  C   -0.000000  -0.000000  -0.000000   0.000023   0.000002   0.002371
    12  C    0.000000  -0.000000   0.000002  -0.000308   0.000007  -0.000213
    13  C   -0.000000   0.000002   0.000023   0.001136  -0.000020  -0.000006
    14  C   -0.000128   0.000786  -0.000134  -0.000042   0.000081   0.000003
    15  C    0.000003   0.000010   0.000001   0.000002   0.000003  -0.000000
    16  C   -0.002395   0.004903  -0.000009   0.000022   0.000012  -0.000000
    17  H   -0.032491   0.004217   0.000003   0.000000  -0.000000   0.000000
    18  H   -0.032607   0.000061   0.000000  -0.000000  -0.000000  -0.000000
    19  H    0.582071   0.000457  -0.000000  -0.000000   0.000000   0.000000
    20  H    0.000457   0.615329   0.006024   0.000168   0.000199  -0.000000
    21  H   -0.000000   0.006024   0.594757  -0.030380  -0.030343   0.000000
    22  H   -0.000000   0.000168  -0.030380   0.576021  -0.034092  -0.000000
    23  H    0.000000   0.000199  -0.030343  -0.034092   0.578456   0.000004
    24  H    0.000000  -0.000000   0.000000  -0.000000   0.000004   0.573944
    25  H   -0.000000  -0.000000   0.000000   0.000000  -0.000000  -0.023682
    26  H    0.000000   0.000000  -0.000000   0.000000   0.000000  -0.043470
    27  H   -0.000000  -0.000000  -0.000000   0.000000  -0.000000   0.000115
    28  H   -0.000000   0.000000   0.000000   0.000001  -0.000000   0.000003
    29  H    0.000000  -0.000000   0.000002  -0.000056   0.000003   0.000001
    30  H    0.000000   0.000003  -0.000122   0.003942  -0.000082  -0.000002
    31  H   -0.000000  -0.000000  -0.000000   0.000000  -0.000000  -0.000000
    32  H    0.000000  -0.000000  -0.000000   0.000001  -0.000002  -0.000002
    33  H    0.000465  -0.000212  -0.000000  -0.000000  -0.000000   0.000000
    34  H   -0.000000  -0.000000   0.000000  -0.000003   0.000001   0.000000
    35  H   -0.000000   0.000001   0.000001   0.000038   0.000187   0.003780
              25         26         27         28         29         30
     1  C    0.000000   0.000000  -0.000000  -0.000000   0.000000  -0.000000
     2  C   -0.000000   0.000000  -0.000000  -0.000000  -0.000007  -0.000010
     3  C    0.000000  -0.000000   0.000000  -0.000000   0.000027  -0.000098
     4  C   -0.000000   0.000001   0.000000  -0.000001  -0.000841   0.003782
     5  C    0.000000  -0.000000   0.000000  -0.000001   0.000166  -0.001112
     6  C    0.000002   0.000001  -0.000010  -0.000183  -0.002072  -0.002935
     7  C   -0.000214   0.000129  -0.000464   0.003064  -0.044922  -0.049147
     8  C    0.002298   0.001720   0.004590   0.000855  -0.000573  -0.000154
     9  N   -0.043359  -0.058041  -0.060193   0.004579   0.001504   0.000958
    10  C    0.378494   0.369568  -0.003195  -0.000138   0.000021  -0.000004
    11  C   -0.001086   0.001534   0.368867  -0.032821  -0.000520   0.000002
    12  C    0.000414   0.000184  -0.031657   0.356784  -0.041994  -0.045387
    13  C   -0.000002   0.000023   0.005458  -0.037100   0.357299   0.365043
    14  C    0.000000  -0.000003   0.000000   0.000000   0.003724  -0.000881
    15  C   -0.000000   0.000001   0.000000  -0.000002  -0.001446   0.000198
    16  C    0.000000   0.000000   0.000000  -0.000000  -0.000101   0.000030
    17  H    0.000000  -0.000000   0.000000   0.000000   0.000000  -0.000000
    18  H    0.000000   0.000000   0.000000   0.000000  -0.000000   0.000000
    19  H   -0.000000   0.000000  -0.000000  -0.000000   0.000000   0.000000
    20  H   -0.000000   0.000000  -0.000000   0.000000  -0.000000   0.000003
    21  H    0.000000  -0.000000  -0.000000   0.000000   0.000002  -0.000122
    22  H    0.000000   0.000000   0.000000   0.000001  -0.000056   0.003942
    23  H   -0.000000   0.000000  -0.000000  -0.000000   0.000003  -0.000082
    24  H   -0.023682  -0.043470   0.000115   0.000003   0.000001  -0.000002
    25  H    0.574529  -0.042923   0.003891  -0.000000   0.000001  -0.000002
    26  H   -0.042923   0.622625   0.000038  -0.000001  -0.000011   0.000003
    27  H    0.003891   0.000038   0.589090  -0.005382  -0.000113  -0.000150
    28  H   -0.000000  -0.000001  -0.005382   0.604011  -0.000255  -0.001259
    29  H    0.000001  -0.000011  -0.000113  -0.000255   0.651340  -0.060014
    30  H   -0.000002   0.000003  -0.000150  -0.001259  -0.060014   0.652683
    31  H   -0.000000   0.000000  -0.000000   0.000000  -0.000121   0.000002
    32  H   -0.000000   0.000016  -0.000000  -0.000001  -0.000213   0.000014
    33  H   -0.000000  -0.000000  -0.000000   0.000000   0.000003  -0.000000
    34  H    0.000000  -0.000001   0.000000   0.000002   0.005031  -0.000093
    35  H    0.000132   0.000063  -0.000165   0.000010  -0.000125  -0.000160
              31         32         33         34         35
     1  C   -0.000003   0.000003  -0.006335   0.000002  -0.000000
     2  C    0.000419  -0.000232  -0.042292  -0.000181  -0.000013
     3  C   -0.000009   0.000010   0.004864   0.000024  -0.000031
     4  C   -0.000136   0.000155   0.000800  -0.000097   0.000847
     5  C    0.000001   0.000001   0.000010   0.000003   0.000021
     6  C    0.004364  -0.003758   0.004516  -0.006078  -0.002685
     7  C    0.000629   0.003595  -0.000220   0.000736  -0.038608
     8  C    0.000084   0.002577  -0.000003  -0.000186   0.368147
     9  N   -0.000001  -0.000184  -0.000000   0.000043  -0.057373
    10  C   -0.000000   0.000001   0.000000  -0.000000  -0.003196
    11  C   -0.000000   0.000006  -0.000000   0.000005   0.003973
    12  C    0.000001   0.000022  -0.000000  -0.000339  -0.000405
    13  C    0.000034  -0.000030   0.000001   0.000830   0.005716
    14  C   -0.035984  -0.031728  -0.032996  -0.029550   0.000939
    15  C    0.359128   0.364972  -0.007467   0.363633   0.000013
    16  C   -0.001897   0.000041   0.343013   0.000509  -0.000030
    17  H    0.000000  -0.000000   0.000062  -0.000000   0.000000
    18  H    0.000002  -0.000000   0.004149   0.000000   0.000000
    19  H   -0.000000   0.000000   0.000465  -0.000000  -0.000000
    20  H   -0.000000  -0.000000  -0.000212  -0.000000   0.000001
    21  H   -0.000000  -0.000000  -0.000000   0.000000   0.000001
    22  H    0.000000   0.000001  -0.000000  -0.000003   0.000038
    23  H   -0.000000  -0.000002  -0.000000   0.000001   0.000187
    24  H   -0.000000  -0.000002   0.000000   0.000000   0.003780
    25  H   -0.000000  -0.000000  -0.000000   0.000000   0.000132
    26  H    0.000000   0.000016  -0.000000  -0.000001   0.000063
    27  H   -0.000000  -0.000000  -0.000000   0.000000  -0.000165
    28  H    0.000000  -0.000001   0.000000   0.000002   0.000010
    29  H   -0.000121  -0.000213   0.000003   0.005031  -0.000125
    30  H    0.000002   0.000014  -0.000000  -0.000093  -0.000160
    31  H    0.593769  -0.029738   0.006156  -0.030511  -0.000000
    32  H   -0.029738   0.578327   0.000157  -0.034589   0.000112
    33  H    0.006156   0.000157   0.615356   0.000191   0.000001
    34  H   -0.030511  -0.034589   0.000191   0.578441   0.000029
    35  H   -0.000000   0.000112   0.000001   0.000029   0.582037
 Mulliken charges:
               1
     1  C   -0.482508
     2  C    0.138932
     3  C   -0.207991
     4  C    0.111593
     5  C   -0.470741
     6  C   -0.093778
     7  C   -0.003852
     8  C    0.116394
     9  N   -0.604310
    10  C   -0.240410
    11  C    0.135469
    12  C   -0.151593
    13  C   -0.307953
    14  C    0.111295
    15  C   -0.471355
    16  C   -0.208078
    17  H    0.142541
    18  H    0.142634
    19  H    0.153580
    20  H    0.109813
    21  H    0.133560
    22  H    0.152971
    23  H    0.151403
    24  H    0.153051
    25  H    0.151507
    26  H    0.148545
    27  H    0.129280
    28  H    0.107836
    29  H    0.134260
    30  H    0.134956
    31  H    0.133811
    32  H    0.150465
    33  H    0.109780
    34  H    0.152148
    35  H    0.136745
 Sum of Mulliken charges =  -0.00000
 Mulliken charges with hydrogens summed into heavy atoms:
               1
     1  C   -0.043752
     2  C    0.138932
     3  C   -0.098178
     4  C    0.111593
     5  C   -0.032807
     6  C   -0.093778
     7  C   -0.003852
     8  C    0.253139
     9  N   -0.604310
    10  C    0.212693
    11  C    0.264749
    12  C   -0.043758
    13  C   -0.038737
    14  C    0.111295
    15  C   -0.034931
    16  C   -0.098299
 Electronic spatial extent (au):  <R**2>=           4307.6741
 Charge=             -0.0000 electrons
 Dipole moment (field-independent basis, Debye):
    X=             -1.3191    Y=              0.1407    Z=             -1.1922  Tot=              1.7835
 Quadrupole moment (field-independent basis, Debye-Ang):
   XX=            -84.8228   YY=            -95.7222   ZZ=            -94.5566
   XY=             -0.4363   XZ=              4.1020   YZ=             -0.0228
 Traceless Quadrupole moment (field-independent basis, Debye-Ang):
   XX=              6.8777   YY=             -4.0217   ZZ=             -2.8561
   XY=             -0.4363   XZ=              4.1020   YZ=             -0.0228
 Octapole moment (field-independent basis, Debye-Ang**2):
  XXX=            -34.2557  YYY=              0.7177  ZZZ=             -6.4773  XYY=             11.4411
  XXY=              0.7246  XXZ=            -18.7509  XZZ=            -21.2548  YZZ=             -0.4669
  YYZ=             -2.5837  XYZ=              0.6896
 Hexadecapole moment (field-independent basis, Debye-Ang**3):
 XXXX=          -3955.1185 YYYY=           -962.7447 ZZZZ=           -596.3136 XXXY=              3.5587
 XXXZ=             63.1015 YYYX=             -2.6049 YYYZ=             -0.5753 ZZZX=             25.2332
 ZZZY=              2.2449 XXYY=           -888.0640 XXZZ=           -796.2024 YYZZ=           -272.0375
 XXYZ=             -1.6767 YYXZ=              4.9269 ZZXY=              0.8159
 N-N= 1.059014262570D+03 E-N=-3.596552849039D+03  KE= 6.339515913069D+02
 Unable to Open any file for archive entry.
 1\1\GINC-N2\SP\RB3LYP TD-FC\6-31G\C15H19N1\HPCMGAC13\13-Jun-2025\0\\# 
 td=(50-50,nstates=3) b3lyp/6-31g\\[No Title]\\0,1\C,0,4.932945,-0.0133
 64,0.297968\C,0,3.423451,-0.007953,0.187555\C,0,2.708172,1.195759,0.13
 8271\C,0,1.311793,1.221761,0.004674\C,0,0.590543,2.55382,-0.032797\C,0
 ,0.596077,0.002431,-0.07787\C,0,-0.890614,0.007876,-0.261377\C,0,-1.72
 3839,0.037795,0.800686\N,0,-3.121738,0.07519,0.698924\C,0,-3.954927,-0
 .117806,1.88056\C,0,-3.682596,0.052777,-0.58452\C,0,-2.941431,0.023409
 ,-1.707181\C,0,-1.426547,-0.002663,-1.694231\C,0,1.3059,-1.222327,-0.0
 26392\C,0,0.577635,-2.54896,-0.096882\C,0,2.702063,-1.206665,0.108311\
 H,0,5.298536,0.869471,0.83376\H,0,5.29276,-0.902957,0.826577\H,0,5.406
 492,-0.01104,-0.693691\H,0,3.247365,2.137792,0.205417\H,0,1.30561,3.38
 2555,-0.046253\H,0,-0.049003,2.645937,-0.918535\H,0,-0.061933,2.685409
 ,0.838559\H,0,-3.486509,0.361892,2.745478\H,0,-4.931136,0.350954,1.723
 493\H,0,-4.116697,-1.180059,2.120911\H,0,-4.766771,0.073367,-0.610357\
 H,0,-3.446287,0.032691,-2.668\H,0,-1.042788,-0.885899,-2.237208\H,0,-1
 .015695,0.857948,-2.253705\H,0,1.284449,-3.383638,-0.053606\H,0,-0.134
 033,-2.663063,0.728924\H,0,3.236358,-2.152797,0.153475\H,0,-0.000096,-
 2.647399,-1.024122\H,0,-1.340207,0.047165,1.815769\\Version=ES64L-G16R
 evC.02\State=1-A\HF=-637.6157623\RMSD=5.923e-09\PG=C01 [X(C15H19N1)]\\
 @
 The archive entry for this job was punched.


 WISDOM IS KNOWING WHAT TO DO,
 SKILL IS KNOWING HOW TO DO IT,
 AND VIRTUE IS NOT DOING IT.
 Job cpu time:       0 days  0 hours 17 minutes 22.9 seconds.
 Elapsed time:       0 days  0 hours  1 minutes  7.3 seconds.
 File lengths (MBytes):  RWF=    381 Int=      0 D2E=      0 Chk=     12 Scr=      2
 Normal termination of Gaussian 16 at Fri Jun 13 11:32:56 2025.
