 Entering Gaussian System, Link 0=g16
 Input=M1910.gjf
 Output=M1910.log
 Initial command:
 /hpc/softwares/Gaussian/g16/l1.exe "/hpc/home/hpcmgac13/pbs.11125.admin1.x8z/Gau-187114.inp" -scrdir="/hpc/home/hpcmgac13/pbs.11125.admin1.x8z/"
 Default linda workers: n2
 Default is to use  16 SMP processors on each worker.
 Entering Link 1 = /hpc/softwares/Gaussian/g16/l1.exe PID=    187115.
  
 Copyright (c) 1988-2021, Gaussian, Inc.  All Rights Reserved.
  
 This is part of the Gaussian(R) 16 program.  It is based on
 the Gaussian(R) 09 system (copyright 2009, Gaussian, Inc.),
 the Gaussian(R) 03 system (copyright 2003, Gaussian, Inc.),
 the Gaussian(R) 98 system (copyright 1998, Gaussian, Inc.),
 the Gaussian(R) 94 system (copyright 1995, Gaussian, Inc.),
 the Gaussian 92(TM) system (copyright 1992, Gaussian, Inc.),
 the Gaussian 90(TM) system (copyright 1990, Gaussian, Inc.),
 the Gaussian 88(TM) system (copyright 1988, Gaussian, Inc.),
 the Gaussian 86(TM) system (copyright 1986, Carnegie Mellon
 University), and the Gaussian 82(TM) system (copyright 1983,
 Carnegie Mellon University). Gaussian is a federally registered
 trademark of Gaussian, Inc.
  
 This software contains proprietary and confidential information,
 including trade secrets, belonging to Gaussian, Inc.
  
 This software is provided under written license and may be
 used, copied, transmitted, or stored only in accord with that
 written license.
  
 The following legend is applicable only to US Government
 contracts under FAR:
  
                    RESTRICTED RIGHTS LEGEND
  
 Use, reproduction and disclosure by the US Government is
 subject to restrictions as set forth in subparagraphs (a)
 and (c) of the Commercial Computer Software - Restricted
 Rights clause in FAR 52.227-19.
  
 Gaussian, Inc.
 340 Quinnipiac St., Bldg. 40, Wallingford CT 06492
  
  
 ---------------------------------------------------------------
 Warning -- This program may not be used in any manner that
 competes with the business of Gaussian, Inc. or will provide
 assistance to any competitor of Gaussian, Inc.  The licensee
 of this program is prohibited from giving any competitor of
 Gaussian, Inc. access to this program.  By using this program,
 the user acknowledges that Gaussian, Inc. is engaged in the
 business of creating and licensing software in the field of
 computational chemistry and represents and warrants to the
 licensee that it is not a competitor of Gaussian, Inc. and that
 it will not use this program in any manner prohibited above.
 ---------------------------------------------------------------
  

 Cite this work as:
 Gaussian 16, Revision C.02,
 M. J. Frisch, G. W. Trucks, H. B. Schlegel, G. E. Scuseria, 
 M. A. Robb, J. R. Cheeseman, G. Scalmani, V. Barone, 
 G. A. Petersson, H. Nakatsuji, X. Li, M. Caricato, A. V. Marenich, 
 J. Bloino, B. G. Janesko, R. Gomperts, B. Mennucci, H. P. Hratchian, 
 J. V. Ortiz, A. F. Izmaylov, J. L. Sonnenberg, D. Williams-Young, 
 F. Ding, F. Lipparini, F. Egidi, J. Goings, B. Peng, A. Petrone, 
 T. Henderson, D. Ranasinghe, V. G. Zakrzewski, J. Gao, N. Rega, 
 G. Zheng, W. Liang, M. Hada, M. Ehara, K. Toyota, R. Fukuda, 
 J. Hasegawa, M. Ishida, T. Nakajima, Y. Honda, O. Kitao, H. Nakai, 
 T. Vreven, K. Throssell, J. A. Montgomery, Jr., J. E. Peralta, 
 F. Ogliaro, M. J. Bearpark, J. J. Heyd, E. N. Brothers, K. N. Kudin, 
 V. N. Staroverov, T. A. Keith, R. Kobayashi, J. Normand, 
 K. Raghavachari, A. P. Rendell, J. C. Burant, S. S. Iyengar, 
 J. Tomasi, M. Cossi, J. M. Millam, M. Klene, C. Adamo, R. Cammi, 
 J. W. Ochterski, R. L. Martin, K. Morokuma, O. Farkas, 
 J. B. Foresman, and D. J. Fox, Gaussian, Inc., Wallingford CT, 2019.
 
 ******************************************
 Gaussian 16:  ES64L-G16RevC.02  7-Dec-2021
                13-Jun-2025 
 ******************************************
 SetLPE:    new flags="-opt 'Tsnet.Node.lindarsharg: ssh'  -nodelist 'n2.head.cm.mguif.local' -env GAUSS_MDEF=4294967296 -env GAUSS_EXEDIR="/hpc/softwares/Gaussian/g16/bsd:/hpc/softwares/Gaussian/g16""
 Will use up to    1 processors via Linda.
 ----------------------------------
 # td=(50-50,nstates=3) b3lyp/6-31g
 ----------------------------------
 1/38=1,172=1/1;
 2/12=2,17=6,18=5,40=1/2;
 3/5=1,6=6,11=9,25=1,30=1,74=-5/1,2,3,8;
 4//1;
 5/5=2,38=5/2;
 8/6=1,10=2,108=3/1;
 9/41=3,42=1,48=2,70=2/14;
 6/7=2,8=2,9=2,10=2/1;
 99/5=1,9=1/99;
 ----------
 [No Title]
 ----------
 Symbolic Z-matrix:
 Charge =  0 Multiplicity = 1
 C                    -2.62394   2.33205   1.53106 
 C                    -2.23374   2.38725   0.02892 
 C                    -3.51735   2.28623  -0.83906 
 C                    -1.53359   3.73239  -0.26058 
 C                    -1.31744   1.21286  -0.29221 
 C                    -0.06572   1.24253  -0.7711 
 C                     0.77304   0.00444  -1.04168 
 C                     2.08135   0.01716  -0.24985 
 C                     3.26592   0.04043  -0.89516 
 N                     4.50899   0.08604  -0.2485 
 C                     5.74215  -0.12381  -0.99759 
 C                     4.51198   0.08372   1.15323 
 C                     3.3836    0.06134   1.88597 
 C                     1.99948   0.01903   1.27048 
 C                    -0.048    -1.24246  -0.75796 
 C                    -1.30025  -1.22544  -0.27983 
 C                    -2.2      -2.40936   0.05303 
 C                    -2.59079  -2.34479   1.55464 
 C                    -1.48127  -3.74741  -0.2234 
 C                    -3.48501  -2.33474  -0.81558 
 O                    -1.97232  -0.00972  -0.02014 
 H                    -1.73516   2.42285   2.16626 
 H                    -3.12187   1.38842   1.76978 
 H                    -3.30488   3.15725   1.77199 
 H                    -3.27041   2.343    -1.90559 
 H                    -4.03771   1.34216  -0.65656 
 H                    -4.19782   3.1121   -0.59919 
 H                    -1.25801   3.82259  -1.31736 
 H                    -0.62824   3.8522    0.34493 
 H                    -2.2132    4.55694  -0.01816 
 H                     0.40284   2.19844  -0.97019 
 H                     1.0571    0.00121  -2.10945 
 H                     3.318     0.04     -1.98004 
 H                     5.65901   0.34138  -1.98487 
 H                     6.57736   0.3495   -0.47228 
 H                     5.98248  -1.18937  -1.13787 
 H                     5.49601   0.11537   1.60852 
 H                     3.46266   0.08855   2.96825 
 H                     1.43832  -0.86631   1.62052 
 H                     1.39349   0.8782    1.61083 
 H                     0.4338   -2.19379  -0.94718 
 H                    -1.70079  -2.41674   2.19054 
 H                    -3.10191  -1.40593   1.78409 
 H                    -3.26005  -3.17705   1.80388 
 H                    -1.2044   -3.84402  -1.27928 
 H                    -0.57441  -3.84873   0.38324 
 H                    -2.14937  -4.57892   0.02709 
 H                    -4.01814  -1.39605  -0.6425 
 H                    -3.23752  -2.39894  -1.88156 
 H                    -4.1541   -3.16734  -0.56713 
 
                          Input orientation:                          
 ---------------------------------------------------------------------
 Center     Atomic      Atomic             Coordinates (Angstroms)
 Number     Number       Type             X           Y           Z
 ---------------------------------------------------------------------
      1          6           0       -2.623938    2.332048    1.531055
      2          6           0       -2.233735    2.387253    0.028918
      3          6           0       -3.517348    2.286228   -0.839062
      4          6           0       -1.533588    3.732394   -0.260584
      5          6           0       -1.317435    1.212862   -0.292207
      6          6           0       -0.065723    1.242525   -0.771104
      7          6           0        0.773040    0.004437   -1.041678
      8          6           0        2.081355    0.017164   -0.249854
      9          6           0        3.265916    0.040430   -0.895159
     10          7           0        4.508988    0.086038   -0.248497
     11          6           0        5.742147   -0.123808   -0.997586
     12          6           0        4.511979    0.083717    1.153226
     13          6           0        3.383601    0.061335    1.885969
     14          6           0        1.999480    0.019025    1.270481
     15          6           0       -0.048002   -1.242457   -0.757962
     16          6           0       -1.300251   -1.225442   -0.279829
     17          6           0       -2.199997   -2.409358    0.053032
     18          6           0       -2.590793   -2.344785    1.554639
     19          6           0       -1.481267   -3.747406   -0.223400
     20          6           0       -3.485010   -2.334743   -0.815575
     21          8           0       -1.972320   -0.009720   -0.020142
     22          1           0       -1.735162    2.422848    2.166258
     23          1           0       -3.121868    1.388422    1.769779
     24          1           0       -3.304884    3.157249    1.771986
     25          1           0       -3.270406    2.343002   -1.905591
     26          1           0       -4.037711    1.342159   -0.656560
     27          1           0       -4.197815    3.112096   -0.599189
     28          1           0       -1.258014    3.822591   -1.317362
     29          1           0       -0.628243    3.852198    0.344925
     30          1           0       -2.213200    4.556944   -0.018159
     31          1           0        0.402838    2.198436   -0.970193
     32          1           0        1.057101    0.001210   -2.109449
     33          1           0        3.317996    0.040002   -1.980036
     34          1           0        5.659008    0.341381   -1.984874
     35          1           0        6.577364    0.349504   -0.472276
     36          1           0        5.982480   -1.189372   -1.137871
     37          1           0        5.496006    0.115371    1.608518
     38          1           0        3.462661    0.088545    2.968248
     39          1           0        1.438321   -0.866312    1.620515
     40          1           0        1.393494    0.878201    1.610831
     41          1           0        0.433804   -2.193794   -0.947184
     42          1           0       -1.700789   -2.416743    2.190543
     43          1           0       -3.101915   -1.405930    1.784091
     44          1           0       -3.260054   -3.177046    1.803878
     45          1           0       -1.204404   -3.844015   -1.279277
     46          1           0       -0.574409   -3.848732    0.383243
     47          1           0       -2.149370   -4.578917    0.027093
     48          1           0       -4.018141   -1.396051   -0.642497
     49          1           0       -3.237516   -2.398944   -1.881558
     50          1           0       -4.154104   -3.167342   -0.567129
 ---------------------------------------------------------------------
                    Distance matrix (angstroms):
                    1          2          3          4          5
     1  C    0.000000
     2  C    1.552972   0.000000
     3  C    2.533325   1.552822   0.000000
     4  C    2.521865   1.543833   2.522169   0.000000
     5  C    2.506753   1.523785   2.508143   2.528985   0.000000
     6  C    3.609911   2.578898   3.606612   2.935082   1.340524
     7  C    4.855532   3.983050   4.863646   4.452898   2.528257
     8  C    5.538060   4.931028   6.069703   5.183711   3.603229
     9  C    6.769668   6.050426   7.145588   6.088392   4.769198
    10  N    7.687002   7.129997   8.343361   7.057534   5.934547
    11  C    9.078361   8.424597   9.569308   8.267393   7.219553
    12  C    7.491265   7.216301   8.560979   7.201429   6.111163
    13  C    6.432156   6.357122   7.745905   6.501009   5.307561
    14  C    5.176289   5.007004   6.326592   5.349377   3.856056
    15  C    4.965091   4.309455   4.949198   5.215697   2.803030
    16  C    4.205613   3.744100   4.190476   4.963361   2.438396
    17  C    4.984497   4.796790   4.957799   6.185756   3.744140
    18  C    4.677010   4.984727   5.294770   6.429994   4.205845
    19  C    6.429897   6.185783   6.397609   7.480075   4.963450
    20  C    5.294059   4.957429   4.621144   6.397360   4.190202
    21  O    2.883521   2.411685   2.886021   3.775409   1.413365
    22  H    1.096198   2.195009   3.496684   2.764978   2.771753
    23  H    1.093322   2.194776   2.787205   3.484137   2.745649
    24  H    1.096673   2.185987   2.760687   2.756741   3.462873
    25  H    3.496938   2.195215   1.096215   2.766405   2.773864
    26  H    2.786448   2.194637   1.093321   3.484344   2.747612
    27  H    2.761069   2.185755   1.096646   2.756361   3.463801
    28  H    3.492985   2.196519   2.773765   1.095836   2.804489
    29  H    2.774988   2.196253   3.492995   1.095739   2.801253
    30  H    2.742067   2.170299   2.744237   1.095685   3.472806
    31  H    3.928800   2.825844   3.923361   2.570276   2.095319
    32  H    5.677686   4.592975   5.268849   4.904254   3.226281
    33  H    7.272401   6.353519   7.284867   6.334678   5.070660
    34  H    9.215840   8.398592   9.449911   8.136681   7.231553
    35  H    9.623293   9.057543  10.285361   8.790694   7.943907
    36  H    9.674399   9.036583  10.120070   9.026887   7.731406
    37  H    8.417431   8.210084   9.588734   8.123521   7.158227
    38  H    6.644209   6.809746   8.248997   6.976066   5.894402
    39  H    5.171021   5.157796   6.367628   5.789549   3.946601
    40  H    4.273148   4.235148   5.665764   4.496267   3.329067
    41  H    5.997891   5.390226   5.974436   6.281859   3.886018
    42  H    4.882432   5.294812   5.881864   6.621772   4.414186
    43  H    3.776899   4.268794   4.548137   5.748280   3.788595
    44  H    5.552404   5.930028   6.074430   7.415056   5.238190
    45  H    6.932301   6.449775   6.566839   7.651671   5.153551
    46  H    6.612116   6.462694   6.913223   7.668638   5.160238
    47  H    7.088621   6.966681   7.053496   8.339055   5.859929
    48  H    4.535069   4.236542   3.721372   5.711375   3.771332
    49  H    5.865551   5.250255   4.807904   6.566904   4.388381
    50  H    6.081700   5.907336   5.497348   7.386977   5.225750
                    6          7          8          9         10
     6  C    0.000000
     7  C    1.519735   0.000000
     8  C    2.526491   1.529325   0.000000
     9  C    3.544043   2.497437   1.349127   0.000000
    10  N    4.747479   3.820092   2.428610   1.401956   0.000000
    11  C    5.970721   4.970957   3.739034   2.483784   1.458030
    12  C    5.099141   4.336306   2.807311   2.398005   1.401728
    13  C    4.511439   3.922930   2.501906   2.783695   2.413100
    14  C    3.151204   2.617336   1.522539   2.508847   2.934181
    15  C    2.485080   1.519654   2.525664   3.556216   4.773951
    16  C    2.802904   2.528152   3.602808   4.778174   5.955520
    17  C    4.309359   3.982932   4.930489   6.064382   7.164384
    18  C    4.965265   4.855417   5.537505   6.781726   7.717972
    19  C    5.215664   4.452842   5.183142   6.110213   7.111897
    20  C    4.948772   4.863525   6.069261   7.157009   8.371724
    21  O    2.401494   2.929290   4.060267   5.311053   6.486036
    22  H    3.578866   4.736100   5.117686   6.329216   7.090919
    23  H    3.977109   4.999001   5.747416   7.051437   7.999975
    24  H    4.541546   5.872512   6.554353   7.746201   8.635467
    25  H    3.573248   4.750230   6.065668   7.003307   8.267939
    26  H    3.974888   5.008108   6.274073   7.422560   8.648145
    27  H    4.538616   5.879008   7.009181   8.076510   9.224339
    28  H    2.894252   4.333530   5.174189   5.911763   6.954323
    29  H    2.893500   4.323370   4.733199   5.588547   6.397441
    30  H    4.020442   5.539904   6.253518   7.154631   8.076501
    31  H    1.083029   2.226161   2.845040   3.586061   4.673707
    32  H    2.143073   1.104914   2.123074   2.520893   3.922482
    33  H    3.789081   2.712671   2.126813   1.086126   2.102096
    34  H    5.920966   4.987568   3.989362   2.646685   2.098273
    35  H    6.709500   5.842385   4.513759   3.352618   2.097062
    36  H    6.529119   5.345344   4.178885   2.991829   2.142157
    37  H    6.153528   5.416849   3.888834   3.353702   2.103228
    38  H    5.269148   4.829145   3.502753   3.868713   3.382640
    39  H    3.525505   2.878902   2.166172   3.238966   3.718759
    40  H    2.817030   2.860809   2.162565   3.238489   3.713614
    41  H    3.476898   2.226259   2.844122   3.607675   4.721538
    42  H    4.983476   4.735947   5.117036   6.342509   7.125599
    43  H    4.770933   4.998938   5.747035   7.058301   8.017682
    44  H    6.030497   5.872382   6.553735   7.760492   8.672830
    45  H    5.237148   4.333281   5.173454   5.934663   7.010754
    46  H    5.245205   4.323532   4.732763   5.613198   6.459291
    47  H    6.234412   5.539845   6.252975   7.177342   8.134586
    48  H    4.753970   5.007607   6.273372   7.428647   8.663934
    49  H    4.955167   4.750389   6.065511   7.015565   8.297611
    50  H    6.016925   5.878956   7.008758   8.090371   9.259329
                   11         12         13         14         15
    11  C    0.000000
    12  C    2.486438   0.000000
    13  C    3.729867   1.345604   0.000000
    14  C    4.378594   2.516065   1.515390   0.000000
    15  C    5.902086   5.119063   4.523952   3.146125   0.000000
    16  C    7.164087   6.127770   5.318359   3.852322   1.340533
    17  C    8.330978   7.244065   6.374994   5.001483   2.578847
    18  C    8.993580   7.517189   6.449231   5.170972   3.609576
    19  C    8.118346   7.245109   6.528621   5.341655   2.935094
    20  C    9.490089   8.583528   7.759984   6.322301   3.606859
    21  O    7.776980   6.590270   5.685437   4.176330   2.401462
    22  H    8.509143   6.747187   5.644204   4.530820   4.983175
    23  H    9.408289   7.769042   6.640466   5.324730   4.770708
    24  H   10.014222   8.422162   7.371127   6.183545   6.030367
    25  H    9.388063   8.661769   7.991104   6.577234   4.955447
    26  H    9.894998   8.829281   7.948637   6.473936   4.754819
    27  H   10.461006   9.386296   8.541722   7.174205   6.017332
    28  H    8.042299   7.305875   6.778862   5.636960   5.237535
    29  H    7.628422   6.424693   5.730650   4.738649   5.244859
    30  H    9.282040   8.161491   7.427004   6.324553   6.234456
    31  H    5.822524   5.085861   4.648635   3.509946   3.476786
    32  H    4.816796   4.752687   4.623806   3.508892   2.143473
    33  H    2.620792   3.353332   3.866620   3.507818   3.803697
    34  H    1.094555   3.351080   4.498814   4.908502   6.048456
    35  H    1.094332   2.641726   3.980513   4.909525   6.819929
    36  H    1.101302   3.005371   4.178762   4.808812   6.042670
    37  H    2.628606   1.084713   2.131233   3.514149   6.178993
    38  H    4.579191   2.096520   1.085504   2.242352   5.289703
    39  H    5.092022   3.250890   2.171430   1.105099   2.829805
    40  H    5.169008   3.250470   2.168755   1.105098   3.490885
    41  H    5.697885   5.121552   4.670510   3.502277   1.083044
    42  H    8.415403   6.776932   5.664332   4.524541   3.578314
    43  H    9.359434   7.783856   6.650200   5.321515   3.976826
    44  H    9.910100   8.453427   7.391346   6.177546   4.541248
    45  H    7.885040   7.349910   6.805904   5.629318   2.894329
    46  H    7.461945   6.475212   5.763042   4.729867   2.893462
    47  H    9.119978   8.208648   7.456616   6.316648   4.020451
    48  H    9.849259   8.841792   7.956312   6.470988   3.974786
    49  H    9.305482   8.684941   8.005400   6.573283   3.573924
    50  H   10.362634   9.414351   8.559150   7.169124   4.538907
                   16         17         18         19         20
    16  C    0.000000
    17  C    1.523810   0.000000
    18  C    2.506731   1.552970   0.000000
    19  C    2.529082   1.543813   2.521868   0.000000
    20  C    2.508136   1.552837   2.533306   2.522157   0.000000
    21  O    1.413186   2.411525   2.883569   3.775281   2.885598
    22  H    4.413900   5.294526   4.882264   6.621704   5.881154
    23  H    3.788333   4.268513   3.776925   5.748136   4.547294
    24  H    5.237984   5.929814   5.552436   7.414945   6.073705
    25  H    4.388440   5.250420   5.866039   6.566876   4.807857
    26  H    3.772027   4.237286   4.536136   5.711979   3.721609
    27  H    5.226098   5.907887   6.082684   7.387396   5.497542
    28  H    5.153726   6.450000   6.932620   7.651892   6.566891
    29  H    5.159878   6.462406   6.611929   7.668417   6.912750
    30  H    5.859858   6.966678   7.088733   8.339069   7.053277
    31  H    3.885879   5.390130   5.998121   6.281766   5.974025
    32  H    3.226344   4.593022   5.677708   4.904347   5.268924
    33  H    5.081364   6.370320   7.286626   6.361066   7.299060
    34  H    7.334398   8.572257   9.370318   8.414541   9.599061
    35  H    8.035814   9.215711   9.768453   9.043680  10.419904
    36  H    7.333192   8.358202   9.060110   7.942752   9.541966
    37  H    7.180024   8.247561   8.452904   8.182867   9.619664
    38  H    5.912859   6.841323   6.675604   7.024497   8.274042
    39  H    3.352620   4.251512   4.292317   4.497190   5.685949
    40  H    3.905915   5.113508   5.124972   5.746729   6.325366
    41  H    2.095236   2.825563   3.928117   2.570033   3.923556
    42  H    2.771708   2.195044   1.096202   2.765136   3.496700
    43  H    2.745603   2.194741   1.093317   3.484111   2.787063
    44  H    3.462863   2.185984   1.096672   2.756674   2.760727
    45  H    2.804462   2.196473   3.492971   1.095839   2.773821
    46  H    2.801457   2.196218   2.774857   1.095753   3.492982
    47  H    3.472895   2.170305   2.742188   1.095682   2.744147
    48  H    2.747283   2.194584   2.786544   3.484285   1.093310
    49  H    2.774101   2.195266   3.496946   2.766270   1.096218
    50  H    3.463812   2.185789   2.760877   2.756571   1.096646
                   21         22         23         24         25
    21  O    0.000000
    22  H    3.279326   0.000000
    23  H    2.545600   1.774876   0.000000
    24  H    3.875196   1.777308   1.778271   0.000000
    25  H    3.282567   4.352391   3.800215   3.766797   0.000000
    26  H    2.549205   3.799727   2.593845   3.119202   1.774971
    27  H    3.877352   3.766619   3.121013   2.534134   1.777155
    28  H    4.108482   3.784516   4.350813   3.765160   2.566110
    29  H    4.105390   2.566236   3.783988   3.111891   3.784643
    30  H    4.573013   3.091046   3.749924   2.521019   3.095420
    31  H    3.379338   3.802464   4.537303   4.710209   3.793230
    32  H    3.680043   5.651790   5.868266   6.637246   4.924720
    33  H    5.641906   6.957307   7.573057   8.225414   6.979713
    34  H    7.888004   8.731446   9.607159  10.119015   9.151350
    35  H    8.569164   8.964302  10.009059  10.515654  10.149236
    36  H    8.119097   9.139333   9.898919  10.659058   9.933930
    37  H    7.644872   7.610868   8.712888   9.313185   9.703674
    38  H    6.203156   5.754087   6.817773   7.526463   8.612263
    39  H    3.880461   4.602978   5.089345   6.221735   6.701136
    40  H    3.844110   3.533118   4.546876   5.224441   6.021863
    41  H    3.379204   5.975895   5.732099   7.071445   5.934832
    42  H    3.279423   4.839774   4.083600   5.815299   6.472803
    43  H    2.545711   4.083333   2.794460   4.567707   5.262759
    44  H    3.875211   5.815103   4.567686   6.334534   6.650654
    45  H    4.108155   7.171261   6.352307   7.920853   6.552848
    46  H    4.105470   6.622628   5.986636   7.646429   7.130549
    47  H    4.572870   7.332960   6.292205   8.014245   7.273579
    48  H    2.548455   5.261662   3.791526   5.202980   4.016843
    49  H    3.282374   6.472369   5.262108   6.650128   4.742121
    50  H    3.876848   6.676295   5.223183   6.796549   5.739015
                   26         27         28         29         30
    26  H    0.000000
    27  H    1.778089   0.000000
    28  H    3.783638   3.108538   0.000000
    29  H    4.350602   3.765760   1.777832   0.000000
    30  H    3.751165   2.522673   1.771887   1.772170   0.000000
    31  H    4.533216   4.705149   2.348794   2.351083   3.648641
    32  H    5.464992   6.290679   4.537633   4.867694   5.985238
    33  H    7.586411   8.236013   5.973858   5.959118   7.405799
    34  H    9.838310  10.332180   7.772361   7.568575   9.143883
    35  H   10.662980  11.124410   8.612180   8.053413   9.756167
    36  H   10.346233  11.064864   8.807766   8.444985  10.071895
    37  H    9.875594  10.383857   8.241422   7.284708   9.044640
    38  H    8.424153   8.975041   7.388797   6.146739   7.816688
    39  H    6.328455   7.247127   6.155254   5.306803   6.740220
    40  H    5.903754   6.413830   4.926890   3.812427   5.403240
    41  H    5.708053   7.051628   6.260684   6.273078   7.310416
    42  H    5.262751   6.677260   7.171523   6.622408   7.333024
    43  H    3.792688   5.224326   6.352670   5.986498   6.292359
    44  H    5.204010   6.797605   7.921188   7.646257   8.014382
    45  H    5.942374   7.603322   7.666888   7.886805   8.554776
    46  H    6.326215   7.908690   7.887241   7.701213   8.573339
    47  H    6.252388   7.983736   8.554964   8.573129   9.136196
    48  H    2.738316   4.511934   5.942051   6.325388   6.251860
    49  H    4.017062   5.739182   6.553186   7.130379   7.273641
    50  H    4.511889   6.279672   7.603246   7.908064   7.983299
                   31         32         33         34         35
    31  H    0.000000
    32  H    2.560033   0.000000
    33  H    3.765205   2.264928   0.000000
    34  H    5.666176   4.616144   2.360337   0.000000
    35  H    6.464615   5.768444   3.604527   1.769575   0.000000
    36  H    6.529760   5.159536   3.052880   1.779116   1.779057
    37  H    6.076946   5.791389   4.198467   3.604180   2.356662
    38  H    5.415300   5.619373   4.950636   5.424139   4.648299
    39  H    4.144475   3.848448   4.161556   5.680805   5.680471
    40  H    3.063675   3.837024   4.159400   5.604630   5.611717
    41  H    4.392399   2.560742   3.791463   5.899718   6.666126
    42  H    5.976234   5.651759   6.972627   8.899886   9.125270
    43  H    5.732436   5.868314   7.581202   9.695977  10.092630
    44  H    7.071637   6.637263   8.242460  10.309396  10.695430
    45  H    6.260190   4.537548   6.002396   8.069810   8.876529
    46  H    6.273360   4.867997   5.988168   7.875310   8.336963
    47  H    7.310325   5.985301   7.433375   9.446063  10.034669
    48  H    5.707257   5.464647   7.594087   9.923097  10.739677
    49  H    5.934532   4.925080   6.995205   9.309575  10.289408
    50  H    7.051224   6.290877   8.253220  10.517524  11.293432
                   36         37         38         39         40
    36  H    0.000000
    37  H    3.079231   0.000000
    38  H    4.984252   2.446237   0.000000
    39  H    5.325640   4.174764   2.612678   0.000000
    40  H    5.734894   4.172831   2.597612   1.745116   0.000000
    41  H    5.642077   6.122887   5.451023   3.060121   4.111155
    42  H    8.462707   7.651419   5.791589   3.547221   4.557116
    43  H    9.545208   8.733237   6.835886   4.575116   5.045392
    44  H    9.900968   9.356643   7.564043   5.239069   6.175581
    45  H    7.662795   8.301301   7.435590   4.925394   6.115646
    46  H    7.237318   7.352914   6.203413   3.804833   5.265312
    47  H    8.886683   9.109831   7.869593   5.403143   6.696286
    48  H   10.015015   9.892950   8.438241   5.930837   6.287726
    49  H    9.328690   9.735339   8.637163   6.039613   6.662035
    50  H   10.343522  10.422776   9.006376   6.430843   7.203178
                   41         42         43         44         45
    41  H    0.000000
    42  H    3.801516   0.000000
    43  H    4.536728   1.774852   0.000000
    44  H    4.709534   1.777323   1.778272   0.000000
    45  H    2.348881   3.784594   4.350751   3.765155   0.000000
    46  H    2.350606   2.566254   3.783906   3.111600   1.777889
    47  H    3.648399   3.091397   3.749964   2.521076   1.771904
    48  H    4.533105   3.799743   2.593819   3.119518   3.783534
    49  H    3.793907   4.352454   3.800190   3.766748   2.566031
    50  H    4.705437   3.766551   3.120562   2.533988   3.108982
                   46         47         48         49         50
    46  H    0.000000
    47  H    1.772150   0.000000
    48  H    4.350526   3.751172   0.000000
    49  H    3.784620   3.095043   1.774948   0.000000
    50  H    3.765862   2.522816   1.778100   1.777159   0.000000
 Stoichiometry    C19H29NO
 Framework group  C1[X(C19H29NO)]
 Deg. of freedom   144
 Full point group                 C1      NOp   1
 Largest Abelian subgroup         C1      NOp   1
 Largest concise Abelian subgroup C1      NOp   1
                         Standard orientation:                         
 ---------------------------------------------------------------------
 Center     Atomic      Atomic             Coordinates (Angstroms)
 Number     Number       Type             X           Y           Z
 ---------------------------------------------------------------------
      1          6           0        2.623938   -2.332048    1.531055
      2          6           0        2.233735   -2.387253    0.028918
      3          6           0        3.517348   -2.286228   -0.839062
      4          6           0        1.533588   -3.732394   -0.260584
      5          6           0        1.317435   -1.212862   -0.292207
      6          6           0        0.065723   -1.242525   -0.771104
      7          6           0       -0.773040   -0.004437   -1.041678
      8          6           0       -2.081355   -0.017164   -0.249854
      9          6           0       -3.265916   -0.040430   -0.895159
     10          7           0       -4.508988   -0.086038   -0.248497
     11          6           0       -5.742147    0.123808   -0.997586
     12          6           0       -4.511979   -0.083717    1.153226
     13          6           0       -3.383601   -0.061335    1.885969
     14          6           0       -1.999480   -0.019025    1.270481
     15          6           0        0.048002    1.242457   -0.757962
     16          6           0        1.300251    1.225442   -0.279829
     17          6           0        2.199997    2.409358    0.053032
     18          6           0        2.590793    2.344785    1.554639
     19          6           0        1.481267    3.747406   -0.223400
     20          6           0        3.485010    2.334743   -0.815575
     21          8           0        1.972320    0.009720   -0.020142
     22          1           0        1.735162   -2.422848    2.166258
     23          1           0        3.121868   -1.388422    1.769779
     24          1           0        3.304884   -3.157249    1.771986
     25          1           0        3.270406   -2.343002   -1.905591
     26          1           0        4.037711   -1.342159   -0.656560
     27          1           0        4.197815   -3.112096   -0.599189
     28          1           0        1.258014   -3.822591   -1.317362
     29          1           0        0.628243   -3.852198    0.344925
     30          1           0        2.213200   -4.556944   -0.018159
     31          1           0       -0.402838   -2.198436   -0.970193
     32          1           0       -1.057101   -0.001210   -2.109449
     33          1           0       -3.317996   -0.040002   -1.980036
     34          1           0       -5.659008   -0.341381   -1.984874
     35          1           0       -6.577364   -0.349504   -0.472276
     36          1           0       -5.982480    1.189372   -1.137871
     37          1           0       -5.496006   -0.115371    1.608518
     38          1           0       -3.462661   -0.088545    2.968248
     39          1           0       -1.438321    0.866312    1.620515
     40          1           0       -1.393494   -0.878201    1.610831
     41          1           0       -0.433804    2.193794   -0.947184
     42          1           0        1.700789    2.416743    2.190543
     43          1           0        3.101915    1.405930    1.784091
     44          1           0        3.260054    3.177046    1.803878
     45          1           0        1.204404    3.844015   -1.279277
     46          1           0        0.574409    3.848732    0.383243
     47          1           0        2.149370    4.578917    0.027093
     48          1           0        4.018141    1.396051   -0.642497
     49          1           0        3.237516    2.398944   -1.881558
     50          1           0        4.154104    3.167342   -0.567129
 ---------------------------------------------------------------------
 Rotational constants (GHZ):           0.3997605           0.1926437           0.1511927
 Standard basis: 6-31G (6D, 7F)
 There are   247 symmetry adapted cartesian basis functions of A   symmetry.
 There are   247 symmetry adapted basis functions of A   symmetry.
   247 basis functions,   578 primitive gaussians,   247 cartesian basis functions
    79 alpha electrons       79 beta electrons
       nuclear repulsion energy      1744.9566903610 Hartrees.
 NAtoms=   50 NActive=   50 NUniq=   50 SFac= 1.00D+00 NAtFMM=   60 NAOKFM=F Big=F
 Integral buffers will be    131072 words long.
 Regular integral format.
 Two-electron integral symmetry is turned on.
 One-electron integrals computed using PRISM.
 NBasis=   247 RedAO= T EigKep=  1.46D-03  NBF=   247
 NBsUse=   247 1.00D-06 EigRej= -1.00D+00 NBFU=   247
 ExpMin= 1.61D-01 ExpMax= 5.48D+03 ExpMxC= 8.25D+02 IAcc=3 IRadAn=         5 AccDes= 0.00D+00
 Harris functional with IExCor=  402 and IRadAn=       5 diagonalized for initial guess.
 HarFok:  IExCor=  402 AccDes= 0.00D+00 IRadAn=         5 IDoV= 1 UseB2=F ITyADJ=14
 ICtDFT=  3500011 ScaDFX=  1.000000  1.000000  1.000000  1.000000
 FoFCou: FMM=F IPFlag=           0 FMFlag=      100000 FMFlg1=           0
         NFxFlg=           0 DoJE=T BraDBF=F KetDBF=T FulRan=T
         wScrn=  0.000000 ICntrl=       500 IOpCl=  0 I1Cent=   200000004 NGrid=           0
         NMat0=    1 NMatS0=      1 NMatT0=    0 NMatD0=    1 NMtDS0=    0 NMtDT0=    0
 Petite list used in FoFCou.
 Requested convergence on RMS density matrix=1.00D-08 within 128 cycles.
 Requested convergence on MAX density matrix=1.00D-06.
 Requested convergence on             energy=1.00D-06.
 No special actions if energy rises.
 Integral accuracy reduced to 1.0D-05 until final iterations.
 Initial convergence to 1.0D-05 achieved.  Increase integral accuracy.
 SCF Done:  E(RB3LYP) =  -871.185444893     A.U. after   16 cycles
            NFock= 16  Conv=0.20D-08     -V/T= 2.0058
 DoSCS=F DFT=T ScalE2(SS,OS)=  1.000000  1.000000
 ExpMin= 1.61D-01 ExpMax= 5.48D+03 ExpMxC= 8.25D+02 IAcc=3 IRadAn=         5 AccDes= 0.00D+00
 HarFok:  IExCor=  205 AccDes= 0.00D+00 IRadAn=         5 IDoV=-2 UseB2=F ITyADJ=14
 ICtDFT= 12500011 ScaDFX=  1.000000  1.000000  1.000000  1.000000
 GSVD:  LWork=        -609 too small for GESVD, short by        2520 words or        2520 for optimal perf.
 Range of M.O.s used for correlation:    22   247
 NBasis=   247 NAE=    79 NBE=    79 NFC=    21 NFV=     0
 NROrb=    226 NOA=    58 NOB=    58 NVA=   168 NVB=   168

 **** Warning!!: The largest alpha MO coefficient is  0.10000570D+02

 Keep R1, R2, and R3 ints in memory in canonical form, NReq=1524744074.
 Orbital symmetries:
       Occupied  (A) (A) (A) (A) (A) (A) (A) (A) (A) (A) (A) (A)
                 (A) (A) (A) (A) (A) (A) (A) (A) (A) (A) (A) (A)
                 (A) (A) (A) (A) (A) (A) (A) (A) (A) (A) (A) (A)
                 (A) (A) (A) (A) (A) (A) (A) (A) (A) (A) (A) (A)
                 (A) (A) (A) (A) (A) (A) (A) (A) (A) (A) (A) (A)
                 (A) (A) (A) (A) (A) (A) (A) (A) (A) (A) (A) (A)
                 (A) (A) (A) (A) (A) (A) (A)
       Virtual   (A) (A) (A) (A) (A) (A) (A) (A) (A) (A) (A) (A)
                 (A) (A) (A) (A) (A) (A) (A) (A) (A) (A) (A) (A)
                 (A) (A) (A) (A) (A) (A) (A) (A) (A) (A) (A) (A)
                 (A) (A) (A) (A) (A) (A) (A) (A) (A) (A) (A) (A)
                 (A) (A) (A) (A) (A) (A) (A) (A) (A) (A) (A) (A)
                 (A) (A) (A) (A) (A) (A) (A) (A) (A) (A) (A) (A)
                 (A) (A) (A) (A) (A) (A) (A) (A) (A) (A) (A) (A)
                 (A) (A) (A) (A) (A) (A) (A) (A) (A) (A) (A) (A)
                 (A) (A) (A) (A) (A) (A) (A) (A) (A) (A) (A) (A)
                 (A) (A) (A) (A) (A) (A) (A) (A) (A) (A) (A) (A)
                 (A) (A) (A) (A) (A) (A) (A) (A) (A) (A) (A) (A)
                 (A) (A) (A) (A) (A) (A) (A) (A) (A) (A) (A) (A)
                 (A) (A) (A) (A) (A) (A) (A) (A) (A) (A) (A) (A)
                 (A) (A) (A) (A) (A) (A) (A) (A) (A) (A) (A) (A)
    24 initial guesses have been made.
 Convergence on wavefunction:    0.001000000000000
 Iteration     1 Dimension    24 NMult     0 NNew     24
 CISAX will form    24 AO SS matrices at one time.
 New state      1 was old state      2
 New state      2 was old state      1
 New state      3 was old state      6
 New state      5 was old state     12
 New state      6 was old state     20
 New state      7 was old state      5
 New state      9 was old state      7
 New state     10 was old state      3
 New state     11 was old state     14
 New state     12 was old state     16
 Vector   5 SDiff=9.38D+00 TDiff=2.49D-01 assumed to be triplet.
 Vector   6 SDiff=4.53D-01 TDiff=7.22D+00 assumed to be singlet.
 Vector  11 SDiff=8.41D+00 TDiff=1.15D-01 assumed to be triplet.
 Vector  12 SDiff=4.72D-01 TDiff=6.72D+00 assumed to be singlet.
 Iteration     2 Dimension    36 NMult    24 NNew     12
 New state      2 was old state      3
 New state      3 was old state      2
 New state      5 was old state     10
 New state      6 was old state      7
 Iteration     3 Dimension    48 NMult    36 NNew     12
 New state      5 was old state      6
 New state      6 was old state      5
 Iteration     4 Dimension    60 NMult    48 NNew     12
 Iteration     5 Dimension    72 NMult    60 NNew     12
 Iteration     6 Dimension    80 NMult    72 NNew      8
 Iteration     7 Dimension    82 NMult    80 NNew      2
 Convergence on energies, max DE= 9.23D-06.
 ***********************************************************************
 Excited states from <AA,BB:AA,BB> singles matrix:
 ***********************************************************************
 
 Ground to excited state transition densities written to RWF  633
 Ground to excited state transition electric dipole moments (Au):
       state          X           Y           Z        Dip. S.      Osc.
         1        -0.0000     -0.0000     -0.0000      0.0000      0.0000
         2        -0.0000      0.0000      0.0000      0.0000      0.0000
         3        -0.7372     -0.0028      0.2980      0.6323      0.0603
         4         0.0000      0.0000     -0.0000      0.0000      0.0000
         5         0.0178     -0.1168      0.0001      0.0140      0.0017
         6        -0.2236     -0.0125      0.3723      0.1888      0.0225
 Ground to excited state transition velocity dipole moments (Au):
       state          X           Y           Z        Dip. S.      Osc.
         1         0.0000     -0.0000      0.0000      0.0000      0.0000
         2         0.0000     -0.0000     -0.0000      0.0000      0.0000
         3         0.0897      0.0002     -0.0413      0.0098      0.0454
         4         0.0000     -0.0000     -0.0000      0.0000      0.0000
         5        -0.0029      0.0116     -0.0001      0.0001      0.0005
         6         0.0380      0.0018     -0.0545      0.0044      0.0165
 Ground to excited state transition magnetic dipole moments (Au):
       state          X           Y           Z
         1         0.0000     -0.0000      0.0000
         2        -0.0000     -0.0000     -0.0000
         3         0.0505     -1.4632      0.0340
         4        -0.0000      0.0000     -0.0000
         5        -0.4211      0.0123      0.9982
         6         0.0713     -1.3348     -0.0146
 Ground to excited state transition velocity quadrupole moments (Au):
       state          XX          YY          ZZ          XY          XZ          YZ
         1        -0.0000     -0.0000     -0.0000      0.0000     -0.0000      0.0000
         2        -0.0000      0.0000      0.0000      0.0000      0.0000     -0.0000
         3        -0.4492      0.1652     -0.2088     -0.0007      0.2092      0.0054
         4         0.0000      0.0000      0.0000      0.0000      0.0000     -0.0000
         5         0.0233     -0.0071      0.0036     -0.1377      0.0046     -0.0943
         6         0.0776      0.0853     -0.3120     -0.0127      0.3763      0.0017
 <0|del|b> * <b|rxdel|0> + <0|del|b> * <b|delr+rdel|0>
 Rotatory Strengths (R) in cgs (10**-40 erg-esu-cm/Gauss)
       state          XX          YY          ZZ    R(velocity)    E-M Angle
         1         0.0000     -0.0000     -0.0000      0.0000       90.00
         2        -0.0000      0.0000     -0.0000      0.0000       90.00
         3        -4.0918      8.8431      9.4607      4.7373       88.86
         4         0.0000      0.0000     -0.0000      0.0000       90.00
         5        -0.0530      2.7085      2.3023      1.6526       84.51
         6        -3.1133      5.6780      1.8337      1.4661       89.28
 1/2[<0|r|b>*<b|rxdel|0> + (<0|rxdel|b>*<b|r|0>)*]
 Rotatory Strengths (R) in cgs (10**-40 erg-esu-cm/Gauss)
       state          XX          YY          ZZ     R(length)
         1         0.0000     -0.0000      0.0000      0.0000
         2        -0.0000      0.0000      0.0000      0.0000
         3        26.3065     -2.9396     -7.1560      5.4037
         4         0.0000     -0.0000     -0.0000     -0.0000
         5         5.2981      1.0151     -0.0531      2.0867
         6        11.2702    -11.7592      3.8308      1.1139
  1/2[<0|del|b>*<b|r|0> + (<0|r|b>*<b|del|0>)*] (Au)
       state          X           Y           Z        Dip. S.   Osc.(frdel)
         1        -0.0000      0.0000     -0.0000      0.0000      0.0000
         2        -0.0000     -0.0000     -0.0000      0.0000      0.0000
         3        -0.0661     -0.0000     -0.0123      0.0785      0.0523
         4         0.0000     -0.0000      0.0000     -0.0000     -0.0000
         5        -0.0001     -0.0014     -0.0000      0.0014      0.0009
         6        -0.0085     -0.0000     -0.0203      0.0288      0.0192

 Excitation energies and oscillator strengths:
 
 Excited State   1:      Triplet-A      2.8323 eV  437.75 nm  f=0.0000  <S**2>=2.000
      77 -> 84         0.10106
      79 -> 80         0.60316
      79 -> 81         0.34318
 This state for optimization and/or second-order correction.
 Total Energy, E(TD-HF/TD-DFT) =  -871.081360304    
 Copying the excited state density for this state as the 1-particle RhoCI density.
 
 Excited State   2:      Triplet-A      3.6278 eV  341.76 nm  f=0.0000  <S**2>=2.000
      76 -> 82         0.15263
      77 -> 82         0.15154
      78 -> 80         0.59024
      78 -> 81        -0.31375
 
 Excited State   3:      Singlet-A      3.8955 eV  318.27 nm  f=0.0603  <S**2>=0.000
      79 -> 80         0.70571
 
 Excited State   4:      Triplet-A      3.9550 eV  313.49 nm  f=0.0000  <S**2>=2.000
      76 -> 80        -0.18006
      76 -> 81        -0.16788
      77 -> 80         0.28153
      77 -> 81         0.17557
      79 -> 80         0.14206
      79 -> 81        -0.27407
      79 -> 84         0.46183
      79 -> 86         0.10548
 
 Excited State   5:      Singlet-A      4.8237 eV  257.03 nm  f=0.0017  <S**2>=0.000
      78 -> 80         0.70326
 
 Excited State   6:      Singlet-A      4.8731 eV  254.42 nm  f=0.0225  <S**2>=0.000
      79 -> 81         0.70252
 SavETr:  write IOETrn=   770 NScale= 10 NData=  16 NLR=1 NState=    6 LETran=     118.

 **********************************************************************

            Population analysis using the SCF Density.

 **********************************************************************

 Orbital symmetries:
       Occupied  (A) (A) (A) (A) (A) (A) (A) (A) (A) (A) (A) (A)
                 (A) (A) (A) (A) (A) (A) (A) (A) (A) (A) (A) (A)
                 (A) (A) (A) (A) (A) (A) (A) (A) (A) (A) (A) (A)
                 (A) (A) (A) (A) (A) (A) (A) (A) (A) (A) (A) (A)
                 (A) (A) (A) (A) (A) (A) (A) (A) (A) (A) (A) (A)
                 (A) (A) (A) (A) (A) (A) (A) (A) (A) (A) (A) (A)
                 (A) (A) (A) (A) (A) (A) (A)
       Virtual   (A) (A) (A) (A) (A) (A) (A) (A) (A) (A) (A) (A)
                 (A) (A) (A) (A) (A) (A) (A) (A) (A) (A) (A) (A)
                 (A) (A) (A) (A) (A) (A) (A) (A) (A) (A) (A) (A)
                 (A) (A) (A) (A) (A) (A) (A) (A) (A) (A) (A) (A)
                 (A) (A) (A) (A) (A) (A) (A) (A) (A) (A) (A) (A)
                 (A) (A) (A) (A) (A) (A) (A) (A) (A) (A) (A) (A)
                 (A) (A) (A) (A) (A) (A) (A) (A) (A) (A) (A) (A)
                 (A) (A) (A) (A) (A) (A) (A) (A) (A) (A) (A) (A)
                 (A) (A) (A) (A) (A) (A) (A) (A) (A) (A) (A) (A)
                 (A) (A) (A) (A) (A) (A) (A) (A) (A) (A) (A) (A)
                 (A) (A) (A) (A) (A) (A) (A) (A) (A) (A) (A) (A)
                 (A) (A) (A) (A) (A) (A) (A) (A) (A) (A) (A) (A)
                 (A) (A) (A) (A) (A) (A) (A) (A) (A) (A) (A) (A)
                 (A) (A) (A) (A) (A) (A) (A) (A) (A) (A) (A) (A)
 The electronic state is 1-A.
 Alpha  occ. eigenvalues --  -19.17097 -14.35098 -10.23345 -10.23333 -10.21686
 Alpha  occ. eigenvalues --  -10.20406 -10.20298 -10.20038 -10.20024 -10.19222
 Alpha  occ. eigenvalues --  -10.17042 -10.16859 -10.16786 -10.16776 -10.16570
 Alpha  occ. eigenvalues --  -10.16545 -10.16137 -10.16127 -10.16111 -10.16099
 Alpha  occ. eigenvalues --  -10.16074  -1.05972  -0.95023  -0.83227  -0.82200
 Alpha  occ. eigenvalues --   -0.80766  -0.77813  -0.74743  -0.73913  -0.70797
 Alpha  occ. eigenvalues --   -0.68644  -0.68322  -0.67927  -0.67810  -0.65971
 Alpha  occ. eigenvalues --   -0.62630  -0.62503  -0.59865  -0.56478  -0.53675
 Alpha  occ. eigenvalues --   -0.51167  -0.49339  -0.48161  -0.47637  -0.47128
 Alpha  occ. eigenvalues --   -0.45634  -0.45630  -0.44904  -0.44105  -0.43265
 Alpha  occ. eigenvalues --   -0.42932  -0.42190  -0.41869  -0.41758  -0.40521
 Alpha  occ. eigenvalues --   -0.40433  -0.40221  -0.38813  -0.38263  -0.38222
 Alpha  occ. eigenvalues --   -0.38069  -0.36419  -0.35940  -0.35784  -0.35592
 Alpha  occ. eigenvalues --   -0.35574  -0.34859  -0.33622  -0.33079  -0.32917
 Alpha  occ. eigenvalues --   -0.32252  -0.32132  -0.31875  -0.31489  -0.30382
 Alpha  occ. eigenvalues --   -0.25556  -0.24260  -0.19818  -0.16049
 Alpha virt. eigenvalues --    0.00838   0.04303   0.05935   0.07454   0.07909
 Alpha virt. eigenvalues --    0.09589   0.09956   0.11571   0.12124   0.12288
 Alpha virt. eigenvalues --    0.13162   0.13203   0.13667   0.13929   0.14139
 Alpha virt. eigenvalues --    0.14881   0.15020   0.15452   0.15876   0.16931
 Alpha virt. eigenvalues --    0.16981   0.17464   0.18116   0.18694   0.18822
 Alpha virt. eigenvalues --    0.19672   0.19864   0.20529   0.20702   0.20936
 Alpha virt. eigenvalues --    0.21505   0.21718   0.21766   0.22862   0.23115
 Alpha virt. eigenvalues --    0.23927   0.24177   0.24989   0.25033   0.25467
 Alpha virt. eigenvalues --    0.25626   0.26375   0.26946   0.27163   0.28963
 Alpha virt. eigenvalues --    0.29068   0.30165   0.33110   0.34691   0.34982
 Alpha virt. eigenvalues --    0.36976   0.43560   0.43964   0.47568   0.49550
 Alpha virt. eigenvalues --    0.51169   0.51788   0.52909   0.53360   0.53423
 Alpha virt. eigenvalues --    0.54318   0.54636   0.55100   0.56855   0.57078
 Alpha virt. eigenvalues --    0.58209   0.58932   0.58941   0.59641   0.59904
 Alpha virt. eigenvalues --    0.60782   0.61076   0.62172   0.62402   0.63060
 Alpha virt. eigenvalues --    0.63524   0.64010   0.65006   0.67097   0.68270
 Alpha virt. eigenvalues --    0.69306   0.69709   0.70274   0.70585   0.71181
 Alpha virt. eigenvalues --    0.72080   0.72860   0.73700   0.74244   0.74647
 Alpha virt. eigenvalues --    0.74911   0.77288   0.77799   0.79708   0.80840
 Alpha virt. eigenvalues --    0.81467   0.81811   0.85069   0.85356   0.85717
 Alpha virt. eigenvalues --    0.86069   0.86711   0.87653   0.87795   0.88188
 Alpha virt. eigenvalues --    0.89532   0.89865   0.90644   0.92400   0.92544
 Alpha virt. eigenvalues --    0.92919   0.92978   0.93604   0.95242   0.95513
 Alpha virt. eigenvalues --    0.95948   0.96349   0.96612   0.97026   0.97438
 Alpha virt. eigenvalues --    0.97701   0.98180   0.98631   0.99090   0.99316
 Alpha virt. eigenvalues --    0.99489   1.00170   1.00360   1.00795   1.02121
 Alpha virt. eigenvalues --    1.02229   1.02968   1.03460   1.03521   1.08008
 Alpha virt. eigenvalues --    1.08408   1.09746   1.10700   1.12508   1.14436
 Alpha virt. eigenvalues --    1.15265   1.16812   1.18338   1.18418   1.19849
 Alpha virt. eigenvalues --    1.23497   1.29081   1.30083   1.30413   1.34311
 Alpha virt. eigenvalues --    1.39009   1.39217   1.39639   1.45395   1.49564
 Alpha virt. eigenvalues --    1.50696   1.50985   1.52815   1.56489   1.58886
 Alpha virt. eigenvalues --    1.60698   1.69268   1.77424   1.83205   1.83499
 Alpha virt. eigenvalues --    1.91528   1.98647   2.17936
          Condensed to atoms (all electrons):
               1          2          3          4          5          6
     1  C    5.159153   0.334282  -0.065336  -0.060196  -0.064625  -0.001193
     2  C    0.334282   5.128094   0.330901   0.342851   0.324438  -0.056755
     3  C   -0.065336   0.330901   5.159764  -0.059988  -0.063419  -0.000995
     4  C   -0.060196   0.342851  -0.059988   5.146461  -0.058433  -0.004614
     5  C   -0.064625   0.324438  -0.063419  -0.058433   4.822200   0.543384
     6  C   -0.001193  -0.056755  -0.000995  -0.004614   0.543384   5.277795
     7  C   -0.000061   0.004380  -0.000168   0.000318  -0.023786   0.299474
     8  C    0.000028  -0.000046  -0.000005  -0.000005  -0.000900  -0.066198
     9  C   -0.000000   0.000001   0.000000  -0.000001  -0.000075  -0.001537
    10  N    0.000000  -0.000000   0.000000   0.000000   0.000003  -0.000070
    11  C   -0.000000   0.000000   0.000000  -0.000000  -0.000000   0.000001
    12  C    0.000000  -0.000000  -0.000000   0.000000  -0.000000  -0.000026
    13  C    0.000000  -0.000000   0.000000   0.000000   0.000027   0.000255
    14  C   -0.000006  -0.000040  -0.000000  -0.000002   0.000586  -0.004911
    15  C   -0.000047  -0.000108  -0.000054  -0.000021  -0.016705  -0.048519
    16  C   -0.000090   0.003520  -0.000063  -0.000101  -0.007376  -0.016755
    17  C    0.000015  -0.000133   0.000016   0.000001   0.003526  -0.000114
    18  C   -0.000164   0.000015   0.000002  -0.000000  -0.000091  -0.000046
    19  C   -0.000000   0.000001  -0.000000  -0.000000  -0.000101  -0.000021
    20  C    0.000002   0.000016  -0.000198  -0.000000  -0.000063  -0.000054
    21  O    0.000613  -0.077466   0.001099   0.002967   0.205617  -0.085373
    22  H    0.363793  -0.033357   0.005680  -0.004584  -0.001408   0.001342
    23  H    0.370659  -0.031635  -0.003217   0.005200  -0.007538   0.000077
    24  H    0.363822  -0.035477  -0.005003  -0.004185   0.006177  -0.000076
    25  H    0.005688  -0.033231   0.363992  -0.004599  -0.001575   0.001369
    26  H   -0.003233  -0.031683   0.370649   0.005208  -0.007469   0.000067
    27  H   -0.004952  -0.035275   0.363950  -0.004128   0.006089  -0.000075
    28  H    0.005957  -0.030474  -0.005314   0.364282  -0.004599   0.001676
    29  H   -0.005276  -0.030775   0.005951   0.365055  -0.004224   0.001532
    30  H   -0.004767  -0.033018  -0.004624   0.364835   0.005833   0.000408
    31  H    0.000271  -0.009463   0.000293   0.003419  -0.021536   0.341320
    32  H   -0.000005  -0.000160   0.000026   0.000009   0.001515  -0.048121
    33  H   -0.000000   0.000000   0.000000  -0.000000  -0.000010   0.000184
    34  H    0.000000  -0.000000  -0.000000  -0.000000   0.000000  -0.000001
    35  H    0.000000  -0.000000  -0.000000   0.000000   0.000000  -0.000000
    36  H   -0.000000   0.000000   0.000000   0.000000  -0.000000   0.000000
    37  H    0.000000  -0.000000   0.000000   0.000000   0.000000  -0.000000
    38  H   -0.000000   0.000000   0.000000  -0.000000   0.000000   0.000004
    39  H    0.000001   0.000005   0.000000  -0.000000   0.000465  -0.001227
    40  H   -0.000101  -0.000006   0.000004  -0.000031   0.000161   0.013186
    41  H   -0.000000   0.000013  -0.000000  -0.000000   0.000371   0.004995
    42  H    0.000002  -0.000002   0.000000  -0.000000   0.000000   0.000003
    43  H   -0.000018  -0.000068  -0.000019   0.000001  -0.000038   0.000010
    44  H    0.000002  -0.000000  -0.000000   0.000000   0.000002   0.000000
    45  H    0.000000   0.000000  -0.000000  -0.000000  -0.000001  -0.000001
    46  H   -0.000000   0.000000   0.000000  -0.000000   0.000000  -0.000002
    47  H    0.000000  -0.000000   0.000000   0.000000   0.000001   0.000000
    48  H   -0.000020  -0.000075  -0.000014   0.000001  -0.000051   0.000010
    49  H    0.000000  -0.000003   0.000003   0.000000  -0.000006   0.000007
    50  H   -0.000000  -0.000001   0.000003   0.000000   0.000001   0.000001
               7          8          9         10         11         12
     1  C   -0.000061   0.000028  -0.000000   0.000000  -0.000000   0.000000
     2  C    0.004380  -0.000046   0.000001  -0.000000   0.000000  -0.000000
     3  C   -0.000168  -0.000005   0.000000   0.000000   0.000000  -0.000000
     4  C    0.000318  -0.000005  -0.000001   0.000000  -0.000000   0.000000
     5  C   -0.023786  -0.000900  -0.000075   0.000003  -0.000000  -0.000000
     6  C    0.299474  -0.066198  -0.001537  -0.000070   0.000001  -0.000026
     7  C    5.201814   0.314832  -0.013503   0.003344  -0.000081   0.000640
     8  C    0.314832   4.967716   0.632995  -0.030138   0.003629  -0.009371
     9  C   -0.013503   0.632995   4.899581   0.212762  -0.032934  -0.054080
    10  N    0.003344  -0.030138   0.212762   7.235951   0.263586   0.260167
    11  C   -0.000081   0.003629  -0.032934   0.263586   4.915756  -0.034168
    12  C    0.000640  -0.009371  -0.054080   0.260167  -0.034168   4.738674
    13  C    0.004420  -0.013404  -0.010304  -0.050857   0.004035   0.664442
    14  C   -0.052432   0.331940  -0.065849  -0.030603   0.000078  -0.042091
    15  C    0.303270  -0.067992  -0.001465  -0.000026   0.000002  -0.000031
    16  C   -0.024063  -0.000806  -0.000083   0.000002  -0.000000   0.000000
    17  C    0.004377  -0.000047   0.000001  -0.000000   0.000000  -0.000000
    18  C   -0.000063   0.000028  -0.000000  -0.000000  -0.000000   0.000000
    19  C    0.000321  -0.000005  -0.000001   0.000000  -0.000000   0.000000
    20  C   -0.000168  -0.000005   0.000000   0.000000   0.000000  -0.000000
    21  O   -0.017197   0.000268  -0.000005   0.000000  -0.000000   0.000000
    22  H   -0.000023  -0.000014   0.000000   0.000000   0.000000  -0.000000
    23  H    0.000020  -0.000000  -0.000000   0.000000  -0.000000   0.000000
    24  H    0.000001  -0.000000  -0.000000   0.000000   0.000000   0.000000
    25  H   -0.000005   0.000001   0.000000   0.000000  -0.000000   0.000000
    26  H    0.000016  -0.000000  -0.000000   0.000000   0.000000  -0.000000
    27  H    0.000002   0.000000   0.000000  -0.000000   0.000000  -0.000000
    28  H    0.000017   0.000007  -0.000000   0.000000  -0.000000   0.000000
    29  H   -0.000050  -0.000022   0.000000   0.000000   0.000000  -0.000000
    30  H   -0.000007  -0.000000  -0.000000   0.000000  -0.000000  -0.000000
    31  H   -0.040946   0.001516   0.001458  -0.000050   0.000000  -0.000001
    32  H    0.378958  -0.068337  -0.006205   0.000284   0.000005  -0.000025
    33  H   -0.008000  -0.038185   0.365523  -0.059861  -0.002904   0.003967
    34  H    0.000002   0.000406  -0.001257  -0.044097   0.378165   0.002371
    35  H    0.000002  -0.000196   0.002281  -0.043470   0.378628  -0.001108
    36  H    0.000001   0.000137   0.001779  -0.058323   0.369021   0.001628
    37  H    0.000000  -0.000226   0.004356  -0.060230  -0.003173   0.368961
    38  H   -0.000160   0.003316   0.000910   0.004645  -0.000136  -0.033298
    39  H   -0.003735  -0.044256  -0.000215   0.001492   0.000023  -0.000775
    40  H   -0.004892  -0.047675   0.000359   0.000915  -0.000002  -0.000112
    41  H   -0.041225   0.001858   0.001405  -0.000053   0.000000  -0.000001
    42  H   -0.000021  -0.000014  -0.000000   0.000000   0.000000  -0.000000
    43  H    0.000020  -0.000000  -0.000000   0.000000  -0.000000   0.000000
    44  H    0.000001  -0.000000  -0.000000   0.000000   0.000000   0.000000
    45  H    0.000016   0.000007  -0.000000   0.000000  -0.000000   0.000000
    46  H   -0.000049  -0.000022   0.000000   0.000000   0.000000  -0.000000
    47  H   -0.000007  -0.000000  -0.000000   0.000000   0.000000  -0.000000
    48  H    0.000016  -0.000000  -0.000000   0.000000   0.000000  -0.000000
    49  H   -0.000005   0.000001   0.000000   0.000000  -0.000000   0.000000
    50  H    0.000002   0.000000   0.000000  -0.000000   0.000000  -0.000000
              13         14         15         16         17         18
     1  C    0.000000  -0.000006  -0.000047  -0.000090   0.000015  -0.000164
     2  C   -0.000000  -0.000040  -0.000108   0.003520  -0.000133   0.000015
     3  C    0.000000  -0.000000  -0.000054  -0.000063   0.000016   0.000002
     4  C    0.000000  -0.000002  -0.000021  -0.000101   0.000001  -0.000000
     5  C    0.000027   0.000586  -0.016705  -0.007376   0.003526  -0.000091
     6  C    0.000255  -0.004911  -0.048519  -0.016755  -0.000114  -0.000046
     7  C    0.004420  -0.052432   0.303270  -0.024063   0.004377  -0.000063
     8  C   -0.013404   0.331940  -0.067992  -0.000806  -0.000047   0.000028
     9  C   -0.010304  -0.065849  -0.001465  -0.000083   0.000001  -0.000000
    10  N   -0.050857  -0.030603  -0.000026   0.000002  -0.000000  -0.000000
    11  C    0.004035   0.000078   0.000002  -0.000000   0.000000  -0.000000
    12  C    0.664442  -0.042091  -0.000031   0.000000  -0.000000   0.000000
    13  C    4.994874   0.319725   0.000334   0.000025   0.000000   0.000000
    14  C    0.319725   5.169833  -0.005027   0.000756  -0.000039  -0.000007
    15  C    0.000334  -0.005027   5.275900   0.543857  -0.056730  -0.001208
    16  C    0.000025   0.000756   0.543857   4.821782   0.324431  -0.064562
    17  C    0.000000  -0.000039  -0.056730   0.324431   5.128289   0.334220
    18  C    0.000000  -0.000007  -0.001208  -0.064562   0.334220   5.159043
    19  C    0.000000  -0.000003  -0.004645  -0.058407   0.342769  -0.060193
    20  C    0.000000  -0.000000  -0.000975  -0.063424   0.330966  -0.065322
    21  O    0.000000   0.000099  -0.085371   0.205823  -0.077541   0.000619
    22  H   -0.000001  -0.000015   0.000003   0.000000  -0.000002   0.000002
    23  H   -0.000000   0.000001   0.000010  -0.000038  -0.000068  -0.000019
    24  H   -0.000000   0.000000   0.000000   0.000002  -0.000000   0.000002
    25  H   -0.000000   0.000000   0.000007  -0.000006  -0.000003   0.000000
    26  H    0.000000   0.000000   0.000010  -0.000051  -0.000075  -0.000019
    27  H   -0.000000  -0.000000   0.000001   0.000001  -0.000001  -0.000000
    28  H   -0.000000   0.000001  -0.000002  -0.000001   0.000000   0.000000
    29  H   -0.000000  -0.000012  -0.000002   0.000000   0.000000  -0.000000
    30  H   -0.000000   0.000000   0.000000   0.000001  -0.000000   0.000000
    31  H    0.000019  -0.000466   0.004954   0.000377   0.000013  -0.000000
    32  H   -0.000116   0.005726  -0.047991   0.001497  -0.000160  -0.000005
    33  H   -0.000279   0.005841   0.000295  -0.000013   0.000000  -0.000000
    34  H   -0.000213  -0.000005   0.000001  -0.000000   0.000000  -0.000000
    35  H    0.000388  -0.000001   0.000000  -0.000000  -0.000000   0.000000
    36  H    0.000201   0.000018  -0.000001   0.000000  -0.000000   0.000000
    37  H   -0.031747   0.005307   0.000000   0.000000  -0.000000   0.000000
    38  H    0.357844  -0.038928   0.000006   0.000000   0.000000  -0.000000
    39  H   -0.040865   0.356205   0.012633   0.000031  -0.000005  -0.000095
    40  H   -0.043400   0.362467  -0.001312   0.000512   0.000006   0.000001
    41  H    0.000013  -0.000452   0.340863  -0.021572  -0.009486   0.000272
    42  H   -0.000000  -0.000011   0.001349  -0.001422  -0.033361   0.363802
    43  H   -0.000000   0.000001   0.000077  -0.007536  -0.031633   0.370698
    44  H   -0.000000   0.000000  -0.000077   0.006173  -0.035477   0.363833
    45  H   -0.000000   0.000001   0.001672  -0.004581  -0.030477   0.005959
    46  H   -0.000000  -0.000012   0.001541  -0.004236  -0.030779  -0.005279
    47  H   -0.000000   0.000000   0.000408   0.005827  -0.033007  -0.004757
    48  H    0.000000   0.000000   0.000067  -0.007475  -0.031683  -0.003230
    49  H   -0.000000   0.000000   0.001366  -0.001573  -0.033238   0.005687
    50  H   -0.000000  -0.000000  -0.000075   0.006089  -0.035277  -0.004958
              19         20         21         22         23         24
     1  C   -0.000000   0.000002   0.000613   0.363793   0.370659   0.363822
     2  C    0.000001   0.000016  -0.077466  -0.033357  -0.031635  -0.035477
     3  C   -0.000000  -0.000198   0.001099   0.005680  -0.003217  -0.005003
     4  C   -0.000000  -0.000000   0.002967  -0.004584   0.005200  -0.004185
     5  C   -0.000101  -0.000063   0.205617  -0.001408  -0.007538   0.006177
     6  C   -0.000021  -0.000054  -0.085373   0.001342   0.000077  -0.000076
     7  C    0.000321  -0.000168  -0.017197  -0.000023   0.000020   0.000001
     8  C   -0.000005  -0.000005   0.000268  -0.000014  -0.000000  -0.000000
     9  C   -0.000001   0.000000  -0.000005   0.000000  -0.000000  -0.000000
    10  N    0.000000   0.000000   0.000000   0.000000   0.000000   0.000000
    11  C   -0.000000   0.000000  -0.000000   0.000000  -0.000000   0.000000
    12  C    0.000000  -0.000000   0.000000  -0.000000   0.000000   0.000000
    13  C    0.000000   0.000000   0.000000  -0.000001  -0.000000  -0.000000
    14  C   -0.000003  -0.000000   0.000099  -0.000015   0.000001   0.000000
    15  C   -0.004645  -0.000975  -0.085371   0.000003   0.000010   0.000000
    16  C   -0.058407  -0.063424   0.205823   0.000000  -0.000038   0.000002
    17  C    0.342769   0.330966  -0.077541  -0.000002  -0.000068  -0.000000
    18  C   -0.060193  -0.065322   0.000619   0.000002  -0.000019   0.000002
    19  C    5.146613  -0.060003   0.002970  -0.000000   0.000001   0.000000
    20  C   -0.060003   5.159712   0.001082   0.000000  -0.000019  -0.000000
    21  O    0.002970   0.001082   8.519909  -0.000513   0.006052   0.000134
    22  H   -0.000000   0.000000  -0.000513   0.594251  -0.029514  -0.032149
    23  H    0.000001  -0.000019   0.006052  -0.029514   0.560007  -0.030455
    24  H    0.000000  -0.000000   0.000134  -0.032149  -0.030455   0.605582
    25  H    0.000000   0.000003  -0.000486  -0.000208  -0.000007  -0.000019
    26  H    0.000001  -0.000015   0.005903  -0.000007   0.003055  -0.000165
    27  H    0.000000   0.000003   0.000136  -0.000017  -0.000162   0.003618
    28  H   -0.000000  -0.000000  -0.000025  -0.000052  -0.000195  -0.000029
    29  H   -0.000000   0.000000  -0.000021   0.004239  -0.000015  -0.000148
    30  H    0.000000   0.000000  -0.000056  -0.000127  -0.000000   0.003622
    31  H   -0.000000  -0.000000   0.003502  -0.000053  -0.000024  -0.000004
    32  H    0.000009   0.000026   0.000455   0.000001  -0.000000  -0.000000
    33  H    0.000000   0.000000   0.000000   0.000000  -0.000000  -0.000000
    34  H    0.000000   0.000000   0.000000  -0.000000   0.000000  -0.000000
    35  H    0.000000  -0.000000   0.000000  -0.000000   0.000000  -0.000000
    36  H    0.000000  -0.000000   0.000000   0.000000  -0.000000   0.000000
    37  H    0.000000   0.000000   0.000000  -0.000000   0.000000  -0.000000
    38  H   -0.000000   0.000000  -0.000000   0.000000  -0.000000   0.000000
    39  H   -0.000030   0.000003  -0.000156  -0.000008   0.000000  -0.000000
    40  H   -0.000000   0.000000  -0.000178   0.000550  -0.000007   0.000001
    41  H    0.003422   0.000294   0.003509  -0.000000  -0.000000   0.000000
    42  H   -0.004593   0.005679  -0.000510   0.000000  -0.000003  -0.000000
    43  H    0.005201  -0.003217   0.006053  -0.000003   0.002424  -0.000007
    44  H   -0.004185  -0.005006   0.000134  -0.000000  -0.000007  -0.000000
    45  H    0.364254  -0.005315  -0.000025  -0.000000  -0.000000   0.000000
    46  H    0.364931   0.005956  -0.000022  -0.000000  -0.000000  -0.000000
    47  H    0.364867  -0.004623  -0.000056  -0.000000  -0.000000  -0.000000
    48  H    0.005208   0.370682   0.005917   0.000000   0.000066  -0.000000
    49  H   -0.004604   0.363994  -0.000485  -0.000000   0.000000   0.000000
    50  H   -0.004126   0.363938   0.000136   0.000000  -0.000000  -0.000000
              25         26         27         28         29         30
     1  C    0.005688  -0.003233  -0.004952   0.005957  -0.005276  -0.004767
     2  C   -0.033231  -0.031683  -0.035275  -0.030474  -0.030775  -0.033018
     3  C    0.363992   0.370649   0.363950  -0.005314   0.005951  -0.004624
     4  C   -0.004599   0.005208  -0.004128   0.364282   0.365055   0.364835
     5  C   -0.001575  -0.007469   0.006089  -0.004599  -0.004224   0.005833
     6  C    0.001369   0.000067  -0.000075   0.001676   0.001532   0.000408
     7  C   -0.000005   0.000016   0.000002   0.000017  -0.000050  -0.000007
     8  C    0.000001  -0.000000   0.000000   0.000007  -0.000022  -0.000000
     9  C    0.000000  -0.000000   0.000000  -0.000000   0.000000  -0.000000
    10  N    0.000000   0.000000  -0.000000   0.000000   0.000000   0.000000
    11  C   -0.000000   0.000000   0.000000  -0.000000   0.000000  -0.000000
    12  C    0.000000  -0.000000  -0.000000   0.000000  -0.000000  -0.000000
    13  C   -0.000000   0.000000  -0.000000  -0.000000  -0.000000  -0.000000
    14  C    0.000000   0.000000  -0.000000   0.000001  -0.000012   0.000000
    15  C    0.000007   0.000010   0.000001  -0.000002  -0.000002   0.000000
    16  C   -0.000006  -0.000051   0.000001  -0.000001   0.000000   0.000001
    17  C   -0.000003  -0.000075  -0.000001   0.000000   0.000000  -0.000000
    18  C    0.000000  -0.000019  -0.000000   0.000000  -0.000000   0.000000
    19  C    0.000000   0.000001   0.000000  -0.000000  -0.000000   0.000000
    20  C    0.000003  -0.000015   0.000003  -0.000000   0.000000   0.000000
    21  O   -0.000486   0.005903   0.000136  -0.000025  -0.000021  -0.000056
    22  H   -0.000208  -0.000007  -0.000017  -0.000052   0.004239  -0.000127
    23  H   -0.000007   0.003055  -0.000162  -0.000195  -0.000015  -0.000000
    24  H   -0.000019  -0.000165   0.003618  -0.000029  -0.000148   0.003622
    25  H    0.596447  -0.029698  -0.032342   0.004260  -0.000053  -0.000144
    26  H   -0.029698   0.559934  -0.030384  -0.000015  -0.000193  -0.000002
    27  H   -0.032342  -0.030384   0.605202  -0.000149  -0.000030   0.003552
    28  H    0.004260  -0.000015  -0.000149   0.594726  -0.034470  -0.031681
    29  H   -0.000053  -0.000193  -0.000030  -0.034470   0.590657  -0.031348
    30  H   -0.000144  -0.000002   0.003552  -0.031681  -0.031348   0.598067
    31  H   -0.000048  -0.000024  -0.000003   0.001705   0.001716   0.000032
    32  H   -0.000005   0.000001  -0.000000  -0.000016   0.000009  -0.000000
    33  H   -0.000000   0.000000  -0.000000  -0.000000   0.000000  -0.000000
    34  H    0.000000   0.000000  -0.000000   0.000000  -0.000000  -0.000000
    35  H    0.000000  -0.000000  -0.000000   0.000000  -0.000000  -0.000000
    36  H   -0.000000  -0.000000   0.000000  -0.000000   0.000000   0.000000
    37  H   -0.000000   0.000000  -0.000000  -0.000000  -0.000000  -0.000000
    38  H   -0.000000   0.000000   0.000000  -0.000000   0.000000   0.000000
    39  H   -0.000000   0.000000   0.000000  -0.000000  -0.000001  -0.000000
    40  H   -0.000000  -0.000000  -0.000000  -0.000003   0.000185   0.000000
    41  H   -0.000000  -0.000000   0.000000  -0.000000   0.000000  -0.000000
    42  H   -0.000000   0.000000   0.000000  -0.000000  -0.000000  -0.000000
    43  H    0.000000   0.000066  -0.000000  -0.000000  -0.000000  -0.000000
    44  H    0.000000  -0.000000  -0.000000   0.000000  -0.000000  -0.000000
    45  H   -0.000000  -0.000000  -0.000000  -0.000000   0.000000   0.000000
    46  H   -0.000000  -0.000000   0.000000   0.000000  -0.000000   0.000000
    47  H    0.000000  -0.000000  -0.000000   0.000000   0.000000  -0.000000
    48  H   -0.000002   0.002722  -0.000008  -0.000000  -0.000000  -0.000000
    49  H    0.000001  -0.000002  -0.000000  -0.000000  -0.000000   0.000000
    50  H   -0.000000  -0.000008  -0.000000  -0.000000   0.000000  -0.000000
              31         32         33         34         35         36
     1  C    0.000271  -0.000005  -0.000000   0.000000   0.000000  -0.000000
     2  C   -0.009463  -0.000160   0.000000  -0.000000  -0.000000   0.000000
     3  C    0.000293   0.000026   0.000000  -0.000000  -0.000000   0.000000
     4  C    0.003419   0.000009  -0.000000  -0.000000   0.000000   0.000000
     5  C   -0.021536   0.001515  -0.000010   0.000000   0.000000  -0.000000
     6  C    0.341320  -0.048121   0.000184  -0.000001  -0.000000   0.000000
     7  C   -0.040946   0.378958  -0.008000   0.000002   0.000002   0.000001
     8  C    0.001516  -0.068337  -0.038185   0.000406  -0.000196   0.000137
     9  C    0.001458  -0.006205   0.365523  -0.001257   0.002281   0.001779
    10  N   -0.000050   0.000284  -0.059861  -0.044097  -0.043470  -0.058323
    11  C    0.000000   0.000005  -0.002904   0.378165   0.378628   0.369021
    12  C   -0.000001  -0.000025   0.003967   0.002371  -0.001108   0.001628
    13  C    0.000019  -0.000116  -0.000279  -0.000213   0.000388   0.000201
    14  C   -0.000466   0.005726   0.005841  -0.000005  -0.000001   0.000018
    15  C    0.004954  -0.047991   0.000295   0.000001   0.000000  -0.000001
    16  C    0.000377   0.001497  -0.000013  -0.000000  -0.000000   0.000000
    17  C    0.000013  -0.000160   0.000000   0.000000  -0.000000  -0.000000
    18  C   -0.000000  -0.000005  -0.000000  -0.000000   0.000000   0.000000
    19  C   -0.000000   0.000009   0.000000   0.000000   0.000000   0.000000
    20  C   -0.000000   0.000026   0.000000   0.000000  -0.000000  -0.000000
    21  O    0.003502   0.000455   0.000000   0.000000   0.000000   0.000000
    22  H   -0.000053   0.000001   0.000000  -0.000000  -0.000000   0.000000
    23  H   -0.000024  -0.000000  -0.000000   0.000000   0.000000  -0.000000
    24  H   -0.000004  -0.000000  -0.000000  -0.000000  -0.000000   0.000000
    25  H   -0.000048  -0.000005  -0.000000   0.000000   0.000000  -0.000000
    26  H   -0.000024   0.000001   0.000000   0.000000  -0.000000  -0.000000
    27  H   -0.000003  -0.000000  -0.000000  -0.000000  -0.000000   0.000000
    28  H    0.001705  -0.000016  -0.000000   0.000000   0.000000  -0.000000
    29  H    0.001716   0.000009   0.000000  -0.000000  -0.000000   0.000000
    30  H    0.000032  -0.000000  -0.000000  -0.000000  -0.000000   0.000000
    31  H    0.585781  -0.001952   0.000081   0.000000  -0.000000  -0.000000
    32  H   -0.001952   0.648337   0.008711   0.000002   0.000000  -0.000000
    33  H    0.000081   0.008711   0.595892   0.003994   0.000115   0.000023
    34  H    0.000000   0.000002   0.003994   0.577282  -0.023716  -0.044031
    35  H   -0.000000   0.000000   0.000115  -0.023716   0.575531  -0.043214
    36  H   -0.000000  -0.000000   0.000023  -0.044031  -0.043214   0.625538
    37  H   -0.000000  -0.000000  -0.000174   0.000121   0.003970   0.000004
    38  H    0.000000   0.000002   0.000010   0.000003  -0.000001  -0.000001
    39  H    0.000074   0.000099  -0.000112   0.000001   0.000001  -0.000012
    40  H   -0.000271   0.000118  -0.000156  -0.000002  -0.000002   0.000003
    41  H   -0.000124  -0.001975   0.000057  -0.000000  -0.000000   0.000001
    42  H   -0.000000   0.000001   0.000000   0.000000   0.000000  -0.000000
    43  H   -0.000000  -0.000000  -0.000000  -0.000000   0.000000   0.000000
    44  H    0.000000  -0.000000   0.000000   0.000000  -0.000000  -0.000000
    45  H   -0.000000  -0.000016  -0.000000  -0.000000   0.000000   0.000000
    46  H    0.000000   0.000009   0.000000   0.000000   0.000000  -0.000000
    47  H   -0.000000  -0.000000   0.000000   0.000000   0.000000  -0.000000
    48  H   -0.000000   0.000001   0.000000  -0.000000  -0.000000   0.000000
    49  H   -0.000000  -0.000005  -0.000000  -0.000000   0.000000   0.000000
    50  H    0.000000  -0.000000   0.000000   0.000000   0.000000  -0.000000
              37         38         39         40         41         42
     1  C    0.000000  -0.000000   0.000001  -0.000101  -0.000000   0.000002
     2  C   -0.000000   0.000000   0.000005  -0.000006   0.000013  -0.000002
     3  C    0.000000   0.000000   0.000000   0.000004  -0.000000   0.000000
     4  C    0.000000  -0.000000  -0.000000  -0.000031  -0.000000  -0.000000
     5  C    0.000000   0.000000   0.000465   0.000161   0.000371   0.000000
     6  C   -0.000000   0.000004  -0.001227   0.013186   0.004995   0.000003
     7  C    0.000000  -0.000160  -0.003735  -0.004892  -0.041225  -0.000021
     8  C   -0.000226   0.003316  -0.044256  -0.047675   0.001858  -0.000014
     9  C    0.004356   0.000910  -0.000215   0.000359   0.001405  -0.000000
    10  N   -0.060230   0.004645   0.001492   0.000915  -0.000053   0.000000
    11  C   -0.003173  -0.000136   0.000023  -0.000002   0.000000   0.000000
    12  C    0.368961  -0.033298  -0.000775  -0.000112  -0.000001  -0.000000
    13  C   -0.031747   0.357844  -0.040865  -0.043400   0.000013  -0.000000
    14  C    0.005307  -0.038928   0.356205   0.362467  -0.000452  -0.000011
    15  C    0.000000   0.000006   0.012633  -0.001312   0.340863   0.001349
    16  C    0.000000   0.000000   0.000031   0.000512  -0.021572  -0.001422
    17  C   -0.000000   0.000000  -0.000005   0.000006  -0.009486  -0.033361
    18  C    0.000000  -0.000000  -0.000095   0.000001   0.000272   0.363802
    19  C    0.000000  -0.000000  -0.000030  -0.000000   0.003422  -0.004593
    20  C    0.000000   0.000000   0.000003   0.000000   0.000294   0.005679
    21  O    0.000000  -0.000000  -0.000156  -0.000178   0.003509  -0.000510
    22  H   -0.000000   0.000000  -0.000008   0.000550  -0.000000   0.000000
    23  H    0.000000  -0.000000   0.000000  -0.000007  -0.000000  -0.000003
    24  H   -0.000000   0.000000  -0.000000   0.000001   0.000000  -0.000000
    25  H   -0.000000  -0.000000  -0.000000  -0.000000  -0.000000  -0.000000
    26  H    0.000000   0.000000   0.000000  -0.000000  -0.000000   0.000000
    27  H   -0.000000   0.000000   0.000000  -0.000000   0.000000   0.000000
    28  H   -0.000000  -0.000000  -0.000000  -0.000003  -0.000000  -0.000000
    29  H   -0.000000   0.000000  -0.000001   0.000185   0.000000  -0.000000
    30  H   -0.000000   0.000000  -0.000000   0.000000  -0.000000  -0.000000
    31  H   -0.000000   0.000000   0.000074  -0.000271  -0.000124  -0.000000
    32  H   -0.000000   0.000002   0.000099   0.000118  -0.001975   0.000001
    33  H   -0.000174   0.000010  -0.000112  -0.000156   0.000057   0.000000
    34  H    0.000121   0.000003   0.000001  -0.000002  -0.000000   0.000000
    35  H    0.003970  -0.000001   0.000001  -0.000002  -0.000000   0.000000
    36  H    0.000004  -0.000001  -0.000012   0.000003   0.000001  -0.000000
    37  H    0.591138  -0.005447  -0.000112  -0.000151  -0.000000  -0.000000
    38  H   -0.005447   0.606657  -0.000062  -0.001157   0.000000   0.000000
    39  H   -0.000112  -0.000062   0.642749  -0.057186  -0.000276   0.000520
    40  H   -0.000151  -0.001157  -0.057186   0.642620   0.000083  -0.000008
    41  H   -0.000000   0.000000  -0.000276   0.000083   0.587197  -0.000054
    42  H   -0.000000   0.000000   0.000520  -0.000008  -0.000054   0.594370
    43  H    0.000000  -0.000000  -0.000007   0.000000  -0.000024  -0.029503
    44  H   -0.000000   0.000000   0.000001  -0.000000  -0.000004  -0.032172
    45  H   -0.000000  -0.000000  -0.000003  -0.000000   0.001707  -0.000052
    46  H   -0.000000   0.000000   0.000191  -0.000001   0.001720   0.004243
    47  H   -0.000000   0.000000  -0.000000  -0.000000   0.000032  -0.000128
    48  H    0.000000   0.000000  -0.000000   0.000000  -0.000024  -0.000007
    49  H   -0.000000  -0.000000  -0.000000  -0.000000  -0.000048  -0.000208
    50  H   -0.000000   0.000000  -0.000000   0.000000  -0.000003  -0.000017
              43         44         45         46         47         48
     1  C   -0.000018   0.000002   0.000000  -0.000000   0.000000  -0.000020
     2  C   -0.000068  -0.000000   0.000000   0.000000  -0.000000  -0.000075
     3  C   -0.000019  -0.000000  -0.000000   0.000000   0.000000  -0.000014
     4  C    0.000001   0.000000  -0.000000  -0.000000   0.000000   0.000001
     5  C   -0.000038   0.000002  -0.000001   0.000000   0.000001  -0.000051
     6  C    0.000010   0.000000  -0.000001  -0.000002   0.000000   0.000010
     7  C    0.000020   0.000001   0.000016  -0.000049  -0.000007   0.000016
     8  C   -0.000000  -0.000000   0.000007  -0.000022  -0.000000  -0.000000
     9  C   -0.000000  -0.000000  -0.000000   0.000000  -0.000000  -0.000000
    10  N    0.000000   0.000000   0.000000   0.000000   0.000000   0.000000
    11  C   -0.000000   0.000000  -0.000000   0.000000   0.000000   0.000000
    12  C    0.000000   0.000000   0.000000  -0.000000  -0.000000  -0.000000
    13  C   -0.000000  -0.000000  -0.000000  -0.000000  -0.000000   0.000000
    14  C    0.000001   0.000000   0.000001  -0.000012   0.000000   0.000000
    15  C    0.000077  -0.000077   0.001672   0.001541   0.000408   0.000067
    16  C   -0.007536   0.006173  -0.004581  -0.004236   0.005827  -0.007475
    17  C   -0.031633  -0.035477  -0.030477  -0.030779  -0.033007  -0.031683
    18  C    0.370698   0.363833   0.005959  -0.005279  -0.004757  -0.003230
    19  C    0.005201  -0.004185   0.364254   0.364931   0.364867   0.005208
    20  C   -0.003217  -0.005006  -0.005315   0.005956  -0.004623   0.370682
    21  O    0.006053   0.000134  -0.000025  -0.000022  -0.000056   0.005917
    22  H   -0.000003  -0.000000  -0.000000  -0.000000  -0.000000   0.000000
    23  H    0.002424  -0.000007  -0.000000  -0.000000  -0.000000   0.000066
    24  H   -0.000007  -0.000000   0.000000  -0.000000  -0.000000  -0.000000
    25  H    0.000000   0.000000  -0.000000  -0.000000   0.000000  -0.000002
    26  H    0.000066  -0.000000  -0.000000  -0.000000  -0.000000   0.002722
    27  H   -0.000000  -0.000000  -0.000000   0.000000  -0.000000  -0.000008
    28  H   -0.000000   0.000000  -0.000000   0.000000   0.000000  -0.000000
    29  H   -0.000000  -0.000000   0.000000  -0.000000   0.000000  -0.000000
    30  H   -0.000000  -0.000000   0.000000   0.000000  -0.000000  -0.000000
    31  H   -0.000000   0.000000  -0.000000   0.000000  -0.000000  -0.000000
    32  H   -0.000000  -0.000000  -0.000016   0.000009  -0.000000   0.000001
    33  H   -0.000000   0.000000  -0.000000   0.000000   0.000000   0.000000
    34  H   -0.000000   0.000000  -0.000000   0.000000   0.000000  -0.000000
    35  H    0.000000  -0.000000   0.000000   0.000000   0.000000  -0.000000
    36  H    0.000000  -0.000000   0.000000  -0.000000  -0.000000   0.000000
    37  H    0.000000  -0.000000  -0.000000  -0.000000  -0.000000   0.000000
    38  H   -0.000000   0.000000  -0.000000   0.000000   0.000000   0.000000
    39  H   -0.000007   0.000001  -0.000003   0.000191  -0.000000  -0.000000
    40  H    0.000000  -0.000000  -0.000000  -0.000001  -0.000000   0.000000
    41  H   -0.000024  -0.000004   0.001707   0.001720   0.000032  -0.000024
    42  H   -0.029503  -0.032172  -0.000052   0.004243  -0.000128  -0.000007
    43  H    0.559799  -0.030440  -0.000195  -0.000015  -0.000000   0.003054
    44  H   -0.030440   0.605597  -0.000029  -0.000149   0.003621  -0.000165
    45  H   -0.000195  -0.000029   0.594841  -0.034513  -0.031674  -0.000015
    46  H   -0.000015  -0.000149  -0.034513   0.591243  -0.031374  -0.000193
    47  H   -0.000000   0.003621  -0.031674  -0.031374   0.597979  -0.000002
    48  H    0.003054  -0.000165  -0.000015  -0.000193  -0.000002   0.559707
    49  H   -0.000007  -0.000019   0.004261  -0.000053  -0.000144  -0.029685
    50  H   -0.000162   0.003618  -0.000149  -0.000030   0.003551  -0.030370
              49         50
     1  C    0.000000  -0.000000
     2  C   -0.000003  -0.000001
     3  C    0.000003   0.000003
     4  C    0.000000   0.000000
     5  C   -0.000006   0.000001
     6  C    0.000007   0.000001
     7  C   -0.000005   0.000002
     8  C    0.000001   0.000000
     9  C    0.000000   0.000000
    10  N    0.000000  -0.000000
    11  C   -0.000000   0.000000
    12  C    0.000000  -0.000000
    13  C   -0.000000  -0.000000
    14  C    0.000000  -0.000000
    15  C    0.001366  -0.000075
    16  C   -0.001573   0.006089
    17  C   -0.033238  -0.035277
    18  C    0.005687  -0.004958
    19  C   -0.004604  -0.004126
    20  C    0.363994   0.363938
    21  O   -0.000485   0.000136
    22  H   -0.000000   0.000000
    23  H    0.000000  -0.000000
    24  H    0.000000  -0.000000
    25  H    0.000001  -0.000000
    26  H   -0.000002  -0.000008
    27  H   -0.000000  -0.000000
    28  H   -0.000000  -0.000000
    29  H   -0.000000   0.000000
    30  H    0.000000  -0.000000
    31  H   -0.000000   0.000000
    32  H   -0.000005  -0.000000
    33  H   -0.000000   0.000000
    34  H   -0.000000   0.000000
    35  H    0.000000   0.000000
    36  H    0.000000  -0.000000
    37  H   -0.000000  -0.000000
    38  H   -0.000000   0.000000
    39  H   -0.000000  -0.000000
    40  H   -0.000000   0.000000
    41  H   -0.000048  -0.000003
    42  H   -0.000208  -0.000017
    43  H   -0.000007  -0.000162
    44  H   -0.000019   0.003618
    45  H    0.004261  -0.000149
    46  H   -0.000053  -0.000030
    47  H   -0.000144   0.003551
    48  H   -0.029685  -0.030370
    49  H    0.596463  -0.032352
    50  H   -0.032352   0.605232
 Mulliken charges:
               1
     1  C   -0.394198
     2  C   -0.029268
     3  C   -0.393915
     4  C   -0.399720
     5  C    0.363633
     6  C   -0.150416
     7  C   -0.285616
     8  C    0.129187
     9  C    0.064101
    10  N   -0.605373
    11  C   -0.239532
    12  C    0.134237
    13  C   -0.155418
    14  C   -0.317673
    15  C   -0.150242
    16  C    0.363528
    17  C   -0.029296
    18  C   -0.394165
    19  C   -0.399652
    20  C   -0.393948
    21  O   -0.627510
    22  H    0.132193
    23  H    0.155351
    24  H    0.124758
    25  H    0.130663
    26  H    0.155412
    27  H    0.124973
    28  H    0.134391
    29  H    0.137297
    30  H    0.129424
    31  H    0.128435
    32  H    0.129291
    33  H    0.125003
    34  H    0.150974
    35  H    0.150791
    36  H    0.147229
    37  H    0.127402
    38  H    0.105794
    39  H    0.134643
    40  H    0.135487
    41  H    0.127509
    42  H    0.132114
    43  H    0.155489
    44  H    0.124748
    45  H    0.134327
    46  H    0.136895
    47  H    0.129484
    48  H    0.155569
    49  H    0.130654
    50  H    0.124957
 Sum of Mulliken charges =  -0.00000
 Mulliken charges with hydrogens summed into heavy atoms:
               1
     1  C    0.018104
     2  C   -0.029268
     3  C    0.017132
     4  C    0.001391
     5  C    0.363633
     6  C   -0.021981
     7  C   -0.156325
     8  C    0.129187
     9  C    0.189104
    10  N   -0.605373
    11  C    0.209462
    12  C    0.261640
    13  C   -0.049624
    14  C   -0.047543
    15  C   -0.022733
    16  C    0.363528
    17  C   -0.029296
    18  C    0.018186
    19  C    0.001053
    20  C    0.017232
    21  O   -0.627510
 Electronic spatial extent (au):  <R**2>=           7740.3018
 Charge=              0.0000 electrons
 Dipole moment (field-independent basis, Debye):
    X=             -1.6111    Y=              0.1631    Z=             -0.8816  Tot=              1.8438
 Quadrupole moment (field-independent basis, Debye-Ang):
   XX=           -115.8569   YY=           -127.5385   ZZ=           -128.1715
   XY=             -0.7659   XZ=              4.7350   YZ=             -0.0860
 Traceless Quadrupole moment (field-independent basis, Debye-Ang):
   XX=              7.9987   YY=             -3.6829   ZZ=             -4.3158
   XY=             -0.7659   XZ=              4.7350   YZ=             -0.0860
 Octapole moment (field-independent basis, Debye-Ang**2):
  XXX=           -105.5612  YYY=              1.0915  ZZZ=             -1.8424  XYY=             21.3636
  XXY=              2.4523  XXZ=            -14.8279  XZZ=            -14.9003  YZZ=             -0.7747
  YYZ=             -1.6883  XYZ=              0.8298
 Hexadecapole moment (field-independent basis, Debye-Ang**3):
 XXXX=          -5906.2964 YYYY=          -3018.4745 ZZZZ=           -945.8885 XXXY=             -5.9538
 XXXZ=             93.4067 YYYX=             -4.4900 YYYZ=              0.3500 ZZZX=              9.4487
 ZZZY=              0.7013 XXYY=          -1617.7915 XXZZ=          -1218.6943 YYZZ=           -676.8587
 XXYZ=             -4.2906 YYXZ=             18.3665 ZZXY=              3.8089
 N-N= 1.744956690361D+03 E-N=-5.512130961623D+03  KE= 8.661382862938D+02
 Unable to Open any file for archive entry.
 1\1\GINC-N2\SP\RB3LYP TD-FC\6-31G\C19H29N1O1\HPCMGAC13\13-Jun-2025\0\\
 # td=(50-50,nstates=3) b3lyp/6-31g\\[No Title]\\0,1\C,0,-2.623938,2.33
 2048,1.531055\C,0,-2.233735,2.387253,0.028918\C,0,-3.517348,2.286228,-
 0.839062\C,0,-1.533588,3.732394,-0.260584\C,0,-1.317435,1.212862,-0.29
 2207\C,0,-0.065723,1.242525,-0.771104\C,0,0.77304,0.004437,-1.041678\C
 ,0,2.081355,0.017164,-0.249854\C,0,3.265916,0.04043,-0.895159\N,0,4.50
 8988,0.086038,-0.248497\C,0,5.742147,-0.123808,-0.997586\C,0,4.511979,
 0.083717,1.153226\C,0,3.383601,0.061335,1.885969\C,0,1.99948,0.019025,
 1.270481\C,0,-0.048002,-1.242457,-0.757962\C,0,-1.300251,-1.225442,-0.
 279829\C,0,-2.199997,-2.409358,0.053032\C,0,-2.590793,-2.344785,1.5546
 39\C,0,-1.481267,-3.747406,-0.2234\C,0,-3.48501,-2.334743,-0.815575\O,
 0,-1.97232,-0.00972,-0.020142\H,0,-1.735162,2.422848,2.166258\H,0,-3.1
 21868,1.388422,1.769779\H,0,-3.304884,3.157249,1.771986\H,0,-3.270406,
 2.343002,-1.905591\H,0,-4.037711,1.342159,-0.65656\H,0,-4.197815,3.112
 096,-0.599189\H,0,-1.258014,3.822591,-1.317362\H,0,-0.628243,3.852198,
 0.344925\H,0,-2.2132,4.556944,-0.018159\H,0,0.402838,2.198436,-0.97019
 3\H,0,1.057101,0.00121,-2.109449\H,0,3.317996,0.040002,-1.980036\H,0,5
 .659008,0.341381,-1.984874\H,0,6.577364,0.349504,-0.472276\H,0,5.98248
 ,-1.189372,-1.137871\H,0,5.496006,0.115371,1.608518\H,0,3.462661,0.088
 545,2.968248\H,0,1.438321,-0.866312,1.620515\H,0,1.393494,0.878201,1.6
 10831\H,0,0.433804,-2.193794,-0.947184\H,0,-1.700789,-2.416743,2.19054
 3\H,0,-3.101915,-1.40593,1.784091\H,0,-3.260054,-3.177046,1.803878\H,0
 ,-1.204404,-3.844015,-1.279277\H,0,-0.574409,-3.848732,0.383243\H,0,-2
 .14937,-4.578917,0.027093\H,0,-4.018141,-1.396051,-0.642497\H,0,-3.237
 516,-2.398944,-1.881558\H,0,-4.154104,-3.167342,-0.567129\\Version=ES6
 4L-G16RevC.02\State=1-A\HF=-871.1854449\RMSD=2.002e-09\PG=C01 [X(C19H2
 9N1O1)]\\@
 The archive entry for this job was punched.


 THE LENGTH OF A MEETING IS PROPORTIONAL TO THE
 SQUARE OF THE PARTICIPANTS.
 Job cpu time:       0 days  0 hours 27 minutes 48.4 seconds.
 Elapsed time:       0 days  0 hours  1 minutes 47.6 seconds.
 File lengths (MBytes):  RWF=    626 Int=      0 D2E=      0 Chk=     20 Scr=      2
 Normal termination of Gaussian 16 at Fri Jun 13 11:33:26 2025.
