 Entering Gaussian System, Link 0=g16
 Input=M2024.gjf
 Output=M2024.log
 Initial command:
 /hpc/softwares/Gaussian/g16/l1.exe "/hpc/home/hpcmgac13/pbs.11128.admin1.x8z/Gau-187946.inp" -scrdir="/hpc/home/hpcmgac13/pbs.11128.admin1.x8z/"
 Default linda workers: n2
 Default is to use  16 SMP processors on each worker.
 Entering Link 1 = /hpc/softwares/Gaussian/g16/l1.exe PID=    187947.
  
 Copyright (c) 1988-2021, Gaussian, Inc.  All Rights Reserved.
  
 This is part of the Gaussian(R) 16 program.  It is based on
 the Gaussian(R) 09 system (copyright 2009, Gaussian, Inc.),
 the Gaussian(R) 03 system (copyright 2003, Gaussian, Inc.),
 the Gaussian(R) 98 system (copyright 1998, Gaussian, Inc.),
 the Gaussian(R) 94 system (copyright 1995, Gaussian, Inc.),
 the Gaussian 92(TM) system (copyright 1992, Gaussian, Inc.),
 the Gaussian 90(TM) system (copyright 1990, Gaussian, Inc.),
 the Gaussian 88(TM) system (copyright 1988, Gaussian, Inc.),
 the Gaussian 86(TM) system (copyright 1986, Carnegie Mellon
 University), and the Gaussian 82(TM) system (copyright 1983,
 Carnegie Mellon University). Gaussian is a federally registered
 trademark of Gaussian, Inc.
  
 This software contains proprietary and confidential information,
 including trade secrets, belonging to Gaussian, Inc.
  
 This software is provided under written license and may be
 used, copied, transmitted, or stored only in accord with that
 written license.
  
 The following legend is applicable only to US Government
 contracts under FAR:
  
                    RESTRICTED RIGHTS LEGEND
  
 Use, reproduction and disclosure by the US Government is
 subject to restrictions as set forth in subparagraphs (a)
 and (c) of the Commercial Computer Software - Restricted
 Rights clause in FAR 52.227-19.
  
 Gaussian, Inc.
 340 Quinnipiac St., Bldg. 40, Wallingford CT 06492
  
  
 ---------------------------------------------------------------
 Warning -- This program may not be used in any manner that
 competes with the business of Gaussian, Inc. or will provide
 assistance to any competitor of Gaussian, Inc.  The licensee
 of this program is prohibited from giving any competitor of
 Gaussian, Inc. access to this program.  By using this program,
 the user acknowledges that Gaussian, Inc. is engaged in the
 business of creating and licensing software in the field of
 computational chemistry and represents and warrants to the
 licensee that it is not a competitor of Gaussian, Inc. and that
 it will not use this program in any manner prohibited above.
 ---------------------------------------------------------------
  

 Cite this work as:
 Gaussian 16, Revision C.02,
 M. J. Frisch, G. W. Trucks, H. B. Schlegel, G. E. Scuseria, 
 M. A. Robb, J. R. Cheeseman, G. Scalmani, V. Barone, 
 G. A. Petersson, H. Nakatsuji, X. Li, M. Caricato, A. V. Marenich, 
 J. Bloino, B. G. Janesko, R. Gomperts, B. Mennucci, H. P. Hratchian, 
 J. V. Ortiz, A. F. Izmaylov, J. L. Sonnenberg, D. Williams-Young, 
 F. Ding, F. Lipparini, F. Egidi, J. Goings, B. Peng, A. Petrone, 
 T. Henderson, D. Ranasinghe, V. G. Zakrzewski, J. Gao, N. Rega, 
 G. Zheng, W. Liang, M. Hada, M. Ehara, K. Toyota, R. Fukuda, 
 J. Hasegawa, M. Ishida, T. Nakajima, Y. Honda, O. Kitao, H. Nakai, 
 T. Vreven, K. Throssell, J. A. Montgomery, Jr., J. E. Peralta, 
 F. Ogliaro, M. J. Bearpark, J. J. Heyd, E. N. Brothers, K. N. Kudin, 
 V. N. Staroverov, T. A. Keith, R. Kobayashi, J. Normand, 
 K. Raghavachari, A. P. Rendell, J. C. Burant, S. S. Iyengar, 
 J. Tomasi, M. Cossi, J. M. Millam, M. Klene, C. Adamo, R. Cammi, 
 J. W. Ochterski, R. L. Martin, K. Morokuma, O. Farkas, 
 J. B. Foresman, and D. J. Fox, Gaussian, Inc., Wallingford CT, 2019.
 
 ******************************************
 Gaussian 16:  ES64L-G16RevC.02  7-Dec-2021
                13-Jun-2025 
 ******************************************
 SetLPE:    new flags="-opt 'Tsnet.Node.lindarsharg: ssh'  -nodelist 'n2.head.cm.mguif.local' -env GAUSS_MDEF=4294967296 -env GAUSS_EXEDIR="/hpc/softwares/Gaussian/g16/bsd:/hpc/softwares/Gaussian/g16""
 Will use up to    1 processors via Linda.
 ----------------------------------
 # td=(50-50,nstates=3) b3lyp/6-31g
 ----------------------------------
 1/38=1,172=1/1;
 2/12=2,17=6,18=5,40=1/2;
 3/5=1,6=6,11=9,25=1,30=1,74=-5/1,2,3,8;
 4//1;
 5/5=2,38=5/2;
 8/6=1,10=2,108=3/1;
 9/41=3,42=1,48=2,70=2/14;
 6/7=2,8=2,9=2,10=2/1;
 99/5=1,9=1/99;
 ----------
 [No Title]
 ----------
 Symbolic Z-matrix:
 Charge = -1 Multiplicity = 1
 C                     4.5322   -2.04852   0.14713 
 C                     3.07726  -1.6309    0.09962 
 C                     2.43507  -1.13135   1.24033 
 C                     1.10234  -0.69728   1.2078 
 C                     0.46431  -0.12923   2.45584 
 C                     0.37162  -0.7805   -0.00142 
 C                    -1.06493  -0.35254  -0.04721 
 C                    -2.02923  -1.31059  -0.00545 
 N                    -3.43142  -1.04079  -0.09202 
 C                    -4.30418  -1.84393   0.76112 
 C                    -3.78177   0.33933  -0.25434 
 C                    -2.85325   1.32069  -0.29732 
 C                    -1.41652   1.07373  -0.17196 
 C                    -0.5056    2.09537  -0.18132 
 C                     0.27858   3.07371  -0.18397 
 C                     1.09921   4.19174  -0.19007 
 O                     2.37321   4.26204  -0.08378 
 C                     1.00999  -1.2716   -1.16366 
 C                     0.27592  -1.32691  -2.48804 
 C                     2.34683  -1.69377  -1.09307 
 H                     4.78707  -2.51011   1.10914 
 H                     4.76875  -2.7676   -0.64613 
 H                     5.20012  -1.18547   0.01562 
 H                     2.98626  -1.06406   2.17624 
 H                     1.10049  -0.29259   3.333 
 H                     0.30283   0.94909   2.34092 
 H                    -0.51658  -0.58148   2.64143 
 H                    -1.77919  -2.36575   0.05528 
 H                    -4.05931  -2.90581   0.64062 
 H                    -4.22085  -1.59391   1.83813 
 H                    -5.34791  -1.69673   0.45893 
 H                    -4.8431    0.52486  -0.39021 
 H                    -3.17826   2.34329  -0.46958 
 H                     0.53377   5.14627  -0.30415 
 H                    -0.21414  -0.36993  -2.69732 
 H                     0.96929  -1.54943  -3.3072 
 H                     2.8297   -2.06599  -1.99474 
 H                    -0.51162  -2.09021  -2.48969 
 
                          Input orientation:                          
 ---------------------------------------------------------------------
 Center     Atomic      Atomic             Coordinates (Angstroms)
 Number     Number       Type             X           Y           Z
 ---------------------------------------------------------------------
      1          6           0        4.532198   -2.048523    0.147128
      2          6           0        3.077257   -1.630899    0.099619
      3          6           0        2.435066   -1.131349    1.240326
      4          6           0        1.102340   -0.697282    1.207801
      5          6           0        0.464309   -0.129228    2.455835
      6          6           0        0.371621   -0.780496   -0.001418
      7          6           0       -1.064934   -0.352538   -0.047212
      8          6           0       -2.029233   -1.310589   -0.005450
      9          7           0       -3.431421   -1.040790   -0.092021
     10          6           0       -4.304179   -1.843932    0.761122
     11          6           0       -3.781774    0.339330   -0.254339
     12          6           0       -2.853250    1.320691   -0.297317
     13          6           0       -1.416520    1.073730   -0.171957
     14          6           0       -0.505601    2.095370   -0.181321
     15          6           0        0.278581    3.073713   -0.183973
     16          6           0        1.099206    4.191738   -0.190069
     17          8           0        2.373208    4.262040   -0.083775
     18          6           0        1.009990   -1.271598   -1.163661
     19          6           0        0.275920   -1.326910   -2.488037
     20          6           0        2.346828   -1.693768   -1.093068
     21          1           0        4.787072   -2.510113    1.109143
     22          1           0        4.768752   -2.767604   -0.646128
     23          1           0        5.200119   -1.185467    0.015616
     24          1           0        2.986256   -1.064056    2.176239
     25          1           0        1.100488   -0.292591    3.332997
     26          1           0        0.302829    0.949085    2.340917
     27          1           0       -0.516582   -0.581476    2.641427
     28          1           0       -1.779187   -2.365748    0.055279
     29          1           0       -4.059305   -2.905806    0.640617
     30          1           0       -4.220853   -1.593909    1.838129
     31          1           0       -5.347912   -1.696725    0.458932
     32          1           0       -4.843096    0.524864   -0.390209
     33          1           0       -3.178259    2.343290   -0.469576
     34          1           0        0.533765    5.146274   -0.304151
     35          1           0       -0.214135   -0.369932   -2.697324
     36          1           0        0.969285   -1.549425   -3.307202
     37          1           0        2.829704   -2.065991   -1.994741
     38          1           0       -0.511616   -2.090211   -2.489689
 ---------------------------------------------------------------------
                    Distance matrix (angstroms):
                    1          2          3          4          5
     1  C    0.000000
     2  C    1.514437   0.000000
     3  C    2.536583   1.401132   0.000000
     4  C    3.835988   2.449491   1.402009   0.000000
     5  C    5.055842   3.825476   2.523012   1.512401   0.000000
     6  C    4.352052   2.837932   2.433687   1.415304   2.543783
     7  C    5.851668   4.337455   3.809764   2.528039   2.941716
     8  C    6.604559   5.117605   4.638324   3.413923   3.697471
     9  N    8.030688   6.538184   6.016562   4.728903   4.743335
    10  C    8.860045   7.414079   6.793735   5.544797   5.343289
    11  C    8.659397   7.145166   6.560947   5.202594   5.059033
    12  C    8.129820   6.636291   6.028527   4.688740   4.548440
    13  C    6.725885   5.251933   4.657428   3.374147   3.448176
    14  C    6.531397   5.176957   4.591331   3.509137   3.583874
    15  C    6.666347   5.481458   4.935747   4.103172   4.154746
    16  C    7.130217   6.156274   5.671491   5.084935   5.106334
    17  O    6.673662   5.937680   5.553892   5.279976   5.420032
    18  C    3.837672   2.449197   2.798154   2.441762   3.834518
    19  C    5.057739   3.825684   4.312870   3.839091   5.090364
    20  C    2.537672   1.399993   2.401839   2.799238   4.311192
    21  H    1.097041   2.171549   2.729493   4.107717   5.115513
    22  H    1.096490   2.170113   3.417913   4.600637   5.925490
    23  H    1.099218   2.170716   3.024626   4.295512   5.431225
    24  H    2.734301   2.154517   1.088243   2.149776   2.704125
    25  H    5.000969   4.019131   2.619902   2.163385   1.095821
    26  H    5.629025   4.401952   3.175837   2.152602   1.096376
    27  H    5.819273   4.525235   3.313257   2.165549   1.095956
    28  H    6.320020   4.911926   4.548407   3.523533   3.974665
    29  H    8.648259   7.269703   6.759083   5.642859   5.609589
    30  H    8.926481   7.502413   6.698700   5.434854   4.947484
    31  H    9.891287   8.433084   7.842511   6.570041   6.342443
    32  H    9.736898   8.223092   7.640244   6.276582   6.057751
    33  H    8.894914   7.433010   6.819553   5.512005   5.285800
    34  H    8.243556   7.249997   6.738613   6.062708   5.954265
    35  H    5.782409   4.499577   4.806569   4.134037   5.203198
    36  H    4.987569   4.007070   4.796177   4.596640   5.956891
    37  H    2.736128   2.153354   3.390421   3.887599   5.399423
    38  H    5.691626   4.449213   4.849264   4.268084   5.408890
                    6          7          8          9         10
     6  C    0.000000
     7  C    1.499645   0.000000
     8  C    2.458682   1.359955   0.000000
     9  N    3.813016   2.464946   1.430530   0.000000
    10  C    4.855458   3.656551   2.459160   1.461026   0.000000
    11  C    4.309138   2.811192   2.419830   1.433117   2.463879
    12  C    3.860354   2.461772   2.772693   2.439881   3.638726
    13  C    2.581605   1.474250   2.467411   2.921885   4.209746
    14  C    3.012057   2.514576   3.735364   4.289976   5.552972
    15  C    3.859652   3.682789   4.957820   5.540912   6.788087
    16  C    5.028725   5.035311   6.332205   6.922105   8.156632
    17  O    5.425892   5.754693   7.102240   7.862175   9.087587
    18  C    1.414039   2.529118   3.252668   4.574693   5.680911
    19  C    2.547744   2.950410   3.387807   4.423475   5.639295
    20  C    2.434586   3.812195   4.525445   5.900562   6.906263
    21  H    4.870434   6.343364   7.010220   8.434769   9.122267
    22  H    4.868163   6.342171   6.981831   8.398319   9.227762
    23  H    4.845481   6.320491   7.230465   8.633423   9.556204
    24  H    3.414515   4.675696   5.475005   6.806770   7.467343
    25  H    3.447843   4.014780   4.687932   5.729638   6.183173
    26  H    2.912510   3.044365   4.006255   4.880923   5.614376
    27  H    2.795200   2.753522   3.134594   4.022312   4.413075
    28  H    2.672492   2.138616   1.086081   2.122990   2.673217
    29  H    4.956032   3.994815   2.661449   2.099829   1.096385
    30  H    5.013621   3.880121   2.877890   2.157457   1.108783
    31  H    5.810719   4.517402   3.373186   2.099223   1.096525
    32  H    5.389656   3.893840   3.381531   2.129088   2.688343
    33  H    4.751722   3.451380   3.858303   3.414475   4.507232
    34  H    5.936711   5.732259   6.953363   7.351698   8.567584
    35  H    2.789190   2.783389   3.380178   4.193875   5.555356
    36  H    3.446253   4.024689   4.466511   5.473784   6.666890
    37  H    3.415846   4.679423   5.304449   6.623675   7.650907
    38  H    2.947364   3.048174   3.013705   3.921142   5.001196
                   11         12         13         14         15
    11  C    0.000000
    12  C    1.351693   0.000000
    13  C    2.478015   1.463181   0.000000
    14  C    3.717838   2.474882   1.368799   0.000000
    15  C    4.895741   3.590863   2.621725   1.253836   0.000000
    16  C    6.218452   4.886340   4.006392   2.640121   1.386882
    17  O    7.300723   6.001083   4.953295   3.604374   2.410316
    18  C    5.136434   4.732350   3.517384   3.820796   4.514031
    19  C    4.922463   4.647661   3.740542   4.200442   4.967313
    20  C    6.511276   6.063085   4.761332   4.829617   5.275697
    21  H    9.132553   8.661854   7.278029   7.133594   7.292308
    22  H    9.105934   8.656254   7.296456   7.189114   7.382155
    23  H    9.114400   8.440113   6.994217   6.584673   6.511681
    24  H    7.326898   6.775347   5.428498   5.266225   5.479346
    25  H    6.091370   5.604811   4.526242   4.542280   4.937268
    26  H    4.877616   4.130279   3.047332   2.886038   3.299955
    27  H    4.460361   4.208856   3.385960   3.890184   4.687811
    28  H    3.379891   3.855874   3.466002   4.645382   5.820600
    29  H    3.377703   4.494170   4.845750   6.190004   7.433159
    30  H    2.882469   3.863335   4.361310   5.611778   6.791207
    31  H    2.665908   3.987487   4.850699   6.183679   7.404582
    32  H    1.085950   2.145101   3.477112   4.617790   5.724573
    33  H    2.103904   1.086744   2.191822   2.699566   3.544690
    34  H    6.460114   5.109501   4.517378   3.225428   2.091667
    35  H    4.381698   3.947552   3.147597   3.534535   4.291666
    36  H    5.954824   5.648783   4.733156   5.023042   5.621836
    37  H    7.247497   6.829848   5.586663   5.632910   6.016948
    38  H    4.646869   4.682307   4.025078   4.779925   5.710241
                   16         17         18         19         20
    16  C    0.000000
    17  O    1.280360   0.000000
    18  C    5.550124   5.800488   0.000000
    19  C    6.034396   6.435484   1.515219   0.000000
    20  C    6.083679   6.040780   1.403690   2.523724   0.000000
    21  H    7.759067   7.287788   4.578854   5.889836   3.386878
    22  H    7.880736   7.447870   4.078500   5.064955   2.686744
    23  H    6.765658   6.138130   4.353768   5.525941   3.103034
    24  H    6.064960   5.818143   3.886339   5.400971   3.390247
    25  H    5.702736   5.834279   4.602888   5.969436   4.806944
    26  H    4.189857   4.597964   4.208750   5.338509   4.791123
    27  H    5.780287   6.263965   4.157570   5.243580   4.835573
    28  H    7.165610   7.822359   3.234577   3.430904   4.335234
    29  H    8.813365   9.658156   5.623505   5.574546   6.746350
    30  H    8.117286   9.025935   6.039565   6.245636   7.192796
    31  H    8.755600   9.768168   6.575444   6.359943   7.849697
    32  H    6.985483   8.132369   6.171233   5.833890   7.557205
    33  H    4.668146   5.886360   5.575894   5.429172   6.871184
    34  H    1.115292   2.052800   6.492660   6.836516   7.120096
    35  H    5.368429   5.914402   2.159538   1.095336   3.299198
    36  H    6.534091   6.792246   2.161854   1.096038   2.611676
    37  H    6.738741   6.626021   2.152467   2.703959   1.088455
    38  H    6.880834   7.379819   2.178018   1.096742   3.205997
                   21         22         23         24         25
    21  H    0.000000
    22  H    1.774151   0.000000
    23  H    1.766662   1.768372   0.000000
    24  H    2.544153   3.747682   3.095839   0.000000
    25  H    4.842916   5.951074   5.348759   2.342940   0.000000
    26  H    5.795839   6.533045   5.826387   3.358666   1.778269
    27  H    5.847759   6.597115   6.319839   3.566393   1.782313
    28  H    6.651859   6.597648   7.078513   5.376088   4.830522
    29  H    8.867608   8.922410   9.438598   7.442453   6.379754
    30  H    9.083698   9.400111   9.604327   7.234465   5.678444
    31  H   10.188340  10.233026  10.569715   8.532747   7.198174
    32  H   10.207805  10.163339  10.195886   8.391071   7.060927
    33  H    9.460147   9.450259   9.104106   7.524067   6.301992
    34  H    8.871769   8.982290   7.871979   7.122868   6.567440
    35  H    6.639400   5.897915   6.110588   5.871620   6.172438
    36  H    5.916293   4.795959   5.391989   5.862754   6.759370
    37  H    3.696299   2.463925   3.230437   4.292488   5.875366
    38  H    6.419035   5.633814   6.302304   5.921063   6.303490
                   26         27         28         29         30
    26  H    0.000000
    27  H    1.761919   0.000000
    28  H    4.532885   3.386142   0.000000
    29  H    6.064604   4.685791   2.415206   0.000000
    30  H    5.213762   3.923255   3.120260   1.783594   0.000000
    31  H    6.517135   5.417455   3.653262   1.776343   1.784101
    32  H    5.841195   5.397548   4.235757   3.666937   3.137176
    33  H    4.686219   5.031612   4.940437   5.437075   4.681243
    34  H    4.966499   6.525855   7.868253   9.317986   8.522079
    35  H    5.233634   5.351494   3.742926   5.688395   6.174321
    36  H    6.211921   6.207327   4.418909   6.535424   7.308484
    37  H    5.854375   5.907239   5.053149   7.423533   8.038912
    38  H    5.765015   5.348332   2.856487   4.801053   5.721430
                   31         32         33         34         35
    31  H    0.000000
    32  H    2.431324   0.000000
    33  H    4.678808   2.466709   0.000000
    34  H    9.055554   7.090520   4.654375   0.000000
    35  H    6.170737   5.248878   4.594613   6.059304   0.000000
    36  H    7.356116   6.826075   6.356687   7.351216   1.778662
    37  H    8.545775   8.255841   7.606807   7.755398   3.554602
    38  H    5.677936   5.477970   5.554077   7.631259   1.758115
                   36         37         38
    36  H    0.000000
    37  H    2.334642   0.000000
    38  H    1.775907   3.377866   0.000000
 Stoichiometry    C18H18NO(1-)
 Framework group  C1[X(C18H18NO)]
 Deg. of freedom   108
 Full point group                 C1      NOp   1
 Largest Abelian subgroup         C1      NOp   1
 Largest concise Abelian subgroup C1      NOp   1
                         Standard orientation:                         
 ---------------------------------------------------------------------
 Center     Atomic      Atomic             Coordinates (Angstroms)
 Number     Number       Type             X           Y           Z
 ---------------------------------------------------------------------
      1          6           0        4.532198   -2.048523    0.147128
      2          6           0        3.077257   -1.630899    0.099619
      3          6           0        2.435066   -1.131349    1.240326
      4          6           0        1.102340   -0.697282    1.207801
      5          6           0        0.464309   -0.129228    2.455835
      6          6           0        0.371621   -0.780496   -0.001418
      7          6           0       -1.064934   -0.352538   -0.047212
      8          6           0       -2.029233   -1.310589   -0.005450
      9          7           0       -3.431421   -1.040790   -0.092021
     10          6           0       -4.304179   -1.843932    0.761122
     11          6           0       -3.781774    0.339330   -0.254339
     12          6           0       -2.853250    1.320691   -0.297317
     13          6           0       -1.416520    1.073730   -0.171957
     14          6           0       -0.505601    2.095370   -0.181321
     15          6           0        0.278581    3.073713   -0.183973
     16          6           0        1.099206    4.191738   -0.190069
     17          8           0        2.373208    4.262040   -0.083775
     18          6           0        1.009990   -1.271598   -1.163661
     19          6           0        0.275920   -1.326910   -2.488037
     20          6           0        2.346828   -1.693768   -1.093068
     21          1           0        4.787072   -2.510113    1.109143
     22          1           0        4.768752   -2.767604   -0.646128
     23          1           0        5.200119   -1.185467    0.015616
     24          1           0        2.986256   -1.064056    2.176239
     25          1           0        1.100488   -0.292591    3.332997
     26          1           0        0.302829    0.949085    2.340917
     27          1           0       -0.516582   -0.581476    2.641427
     28          1           0       -1.779187   -2.365748    0.055279
     29          1           0       -4.059305   -2.905806    0.640617
     30          1           0       -4.220853   -1.593909    1.838129
     31          1           0       -5.347912   -1.696725    0.458932
     32          1           0       -4.843096    0.524864   -0.390209
     33          1           0       -3.178259    2.343290   -0.469576
     34          1           0        0.533765    5.146274   -0.304151
     35          1           0       -0.214135   -0.369932   -2.697324
     36          1           0        0.969285   -1.549425   -3.307202
     37          1           0        2.829704   -2.065991   -1.994741
     38          1           0       -0.511616   -2.090211   -2.489689
 ---------------------------------------------------------------------
 Rotational constants (GHZ):           0.3784939           0.2712220           0.1926259
 Standard basis: 6-31G (6D, 7F)
 There are   216 symmetry adapted cartesian basis functions of A   symmetry.
 There are   216 symmetry adapted basis functions of A   symmetry.
   216 basis functions,   512 primitive gaussians,   216 cartesian basis functions
    71 alpha electrons       71 beta electrons
       nuclear repulsion energy      1433.9973493311 Hartrees.
 NAtoms=   38 NActive=   38 NUniq=   38 SFac= 1.00D+00 NAtFMM=   60 NAOKFM=F Big=F
 Integral buffers will be    131072 words long.
 Regular integral format.
 Two-electron integral symmetry is turned on.
 One-electron integrals computed using PRISM.
 NBasis=   216 RedAO= T EigKep=  1.58D-04  NBF=   216
 NBsUse=   216 1.00D-06 EigRej= -1.00D+00 NBFU=   216
 ExpMin= 1.61D-01 ExpMax= 5.48D+03 ExpMxC= 8.25D+02 IAcc=3 IRadAn=         5 AccDes= 0.00D+00
 Harris functional with IExCor=  402 and IRadAn=       5 diagonalized for initial guess.
 HarFok:  IExCor=  402 AccDes= 0.00D+00 IRadAn=         5 IDoV= 1 UseB2=F ITyADJ=14
 ICtDFT=  3500011 ScaDFX=  1.000000  1.000000  1.000000  1.000000
 FoFCou: FMM=F IPFlag=           0 FMFlag=      100000 FMFlg1=           0
         NFxFlg=           0 DoJE=T BraDBF=F KetDBF=T FulRan=T
         wScrn=  0.000000 ICntrl=       500 IOpCl=  0 I1Cent=   200000004 NGrid=           0
         NMat0=    1 NMatS0=      1 NMatT0=    0 NMatD0=    1 NMtDS0=    0 NMtDT0=    0
 Petite list used in FoFCou.
 Requested convergence on RMS density matrix=1.00D-08 within 128 cycles.
 Requested convergence on MAX density matrix=1.00D-06.
 Requested convergence on             energy=1.00D-06.
 No special actions if energy rises.
 Integral accuracy reduced to 1.0D-05 until final iterations.
 EnCoef did     2 forward-backward iterations
 Initial convergence to 1.0D-05 achieved.  Increase integral accuracy.
 SCF Done:  E(RB3LYP) =  -826.462684527     A.U. after   20 cycles
            NFock= 20  Conv=0.54D-08     -V/T= 2.0057
 DoSCS=F DFT=T ScalE2(SS,OS)=  1.000000  1.000000
 ExpMin= 1.61D-01 ExpMax= 5.48D+03 ExpMxC= 8.25D+02 IAcc=3 IRadAn=         5 AccDes= 0.00D+00
 HarFok:  IExCor=  205 AccDes= 0.00D+00 IRadAn=         5 IDoV=-2 UseB2=F ITyADJ=14
 ICtDFT= 12500011 ScaDFX=  1.000000  1.000000  1.000000  1.000000
 Range of M.O.s used for correlation:    21   216
 NBasis=   216 NAE=    71 NBE=    71 NFC=    20 NFV=     0
 NROrb=    196 NOA=    51 NOB=    51 NVA=   145 NVB=   145

 **** Warning!!: The largest alpha MO coefficient is  0.23260704D+02


 **** Warning!!: The smallest alpha delta epsilon is  0.95845647D-01

 Keep R1, R2, and R3 ints in memory in canonical form, NReq=917494102.
 Orbital symmetries:
       Occupied  (A) (A) (A) (A) (A) (A) (A) (A) (A) (A) (A) (A)
                 (A) (A) (A) (A) (A) (A) (A) (A) (A) (A) (A) (A)
                 (A) (A) (A) (A) (A) (A) (A) (A) (A) (A) (A) (A)
                 (A) (A) (A) (A) (A) (A) (A) (A) (A) (A) (A) (A)
                 (A) (A) (A) (A) (A) (A) (A) (A) (A) (A) (A) (A)
                 (A) (A) (A) (A) (A) (A) (A) (A) (A) (A) (A)
       Virtual   (A) (A) (A) (A) (A) (A) (A) (A) (A) (A) (A) (A)
                 (A) (A) (A) (A) (A) (A) (A) (A) (A) (A) (A) (A)
                 (A) (A) (A) (A) (A) (A) (A) (A) (A) (A) (A) (A)
                 (A) (A) (A) (A) (A) (A) (A) (A) (A) (A) (A) (A)
                 (A) (A) (A) (A) (A) (A) (A) (A) (A) (A) (A) (A)
                 (A) (A) (A) (A) (A) (A) (A) (A) (A) (A) (A) (A)
                 (A) (A) (A) (A) (A) (A) (A) (A) (A) (A) (A) (A)
                 (A) (A) (A) (A) (A) (A) (A) (A) (A) (A) (A) (A)
                 (A) (A) (A) (A) (A) (A) (A) (A) (A) (A) (A) (A)
                 (A) (A) (A) (A) (A) (A) (A) (A) (A) (A) (A) (A)
                 (A) (A) (A) (A) (A) (A) (A) (A) (A) (A) (A) (A)
                 (A) (A) (A) (A) (A) (A) (A) (A) (A) (A) (A) (A)
                 (A)
    24 initial guesses have been made.
 Convergence on wavefunction:    0.001000000000000
 Iteration     1 Dimension    24 NMult     0 NNew     24
 CISAX will form    24 AO SS matrices at one time.
 New state      1 was old state      6
 New state      3 was old state      1
 New state      5 was old state      3
 New state      6 was old state      8
 New state      8 was old state     20
 New state      9 was old state     18
 New state     10 was old state     17
 New state     11 was old state     19
 Vector   6 SDiff=1.88D+00 TDiff=3.59D+00 assumed to be singlet.
 Vector  12 SDiff=2.00D+00 TDiff=2.57D+00 assumed to be singlet.
 Iteration     2 Dimension    36 NMult    24 NNew     12
 New state      6 was old state      7
 Iteration     3 Dimension    48 NMult    36 NNew     12
 Iteration     4 Dimension    60 NMult    48 NNew     12
 Iteration     5 Dimension    70 NMult    60 NNew     10
 ***********************************************************************
 Excited states from <AA,BB:AA,BB> singles matrix:
 ***********************************************************************
 
 Ground to excited state transition densities written to RWF  633
 Ground to excited state transition electric dipole moments (Au):
       state          X           Y           Z        Dip. S.      Osc.
         1        -0.0000      0.0000     -0.0000      0.0000      0.0000
         2        -0.0000      0.0000     -0.0000      0.0000      0.0000
         3        -0.1438     -0.0643     -0.0031      0.0248      0.0012
         4         0.0000      0.0000     -0.0000      0.0000      0.0000
         5        -0.1405      0.1706      0.0136      0.0490      0.0026
         6        -0.1578      0.2598     -0.0479      0.0947      0.0057
 Ground to excited state transition velocity dipole moments (Au):
       state          X           Y           Z        Dip. S.      Osc.
         1         0.0000      0.0000     -0.0000      0.0000      0.0000
         2         0.0000     -0.0000     -0.0000      0.0000      0.0000
         3         0.0080      0.0033      0.0069      0.0001      0.0011
         4         0.0000      0.0000     -0.0000      0.0000      0.0000
         5        -0.0008     -0.0052     -0.0036      0.0000      0.0003
         6         0.0159     -0.0191      0.0082      0.0007      0.0050
 Ground to excited state transition magnetic dipole moments (Au):
       state          X           Y           Z
         1         0.0000      0.0000      0.0000
         2         0.0000     -0.0000      0.0000
         3        -0.0830      0.1307      0.4700
         4        -0.0000     -0.0000     -0.0000
         5         0.0513      0.0099     -0.1655
         6         0.0676     -0.0443     -1.1668
 Ground to excited state transition velocity quadrupole moments (Au):
       state          XX          YY          ZZ          XY          XZ          YZ
         1         0.0000      0.0000     -0.0000     -0.0000     -0.0000     -0.0000
         2         0.0000      0.0000      0.0000      0.0000      0.0000      0.0000
         3         0.0300     -0.0159      0.0090     -0.0519     -0.0041     -0.0075
         4         0.0000      0.0000      0.0000     -0.0000      0.0000     -0.0000
         5        -0.0375     -0.0539      0.0313     -0.0159      0.0061      0.0106
         6        -0.1872      0.0063      0.0082      0.0298     -0.0340     -0.0084
 <0|del|b> * <b|rxdel|0> + <0|del|b> * <b|delr+rdel|0>
 Rotatory Strengths (R) in cgs (10**-40 erg-esu-cm/Gauss)
       state          XX          YY          ZZ    R(velocity)    E-M Angle
         1         0.0000     -0.0000      0.0000      0.0000       90.00
         2         0.0000      0.0000      0.0000      0.0000       90.00
         3        16.4950     14.2780     -0.8812      9.9639       56.39
         4        -0.0000     -0.0000     -0.0000     -0.0000       90.00
         5         2.8072      2.1819     -0.4968      1.4975       62.30
         6       -35.4689    -34.4714     10.5227    -19.8059      104.44
 1/2[<0|r|b>*<b|rxdel|0> + (<0|rxdel|b>*<b|r|0>)*]
 Rotatory Strengths (R) in cgs (10**-40 erg-esu-cm/Gauss)
       state          XX          YY          ZZ     R(length)
         1         0.0000     -0.0000      0.0000     -0.0000
         2         0.0000      0.0000      0.0000      0.0000
         3        -8.4372      5.9450      1.0209     -0.4905
         4         0.0000      0.0000     -0.0000      0.0000
         5         5.0920     -1.1974      1.5896      1.8281
         6         7.5436      8.1377    -39.5143     -7.9443
  1/2[<0|del|b>*<b|r|0> + (<0|r|b>*<b|del|0>)*] (Au)
       state          X           Y           Z        Dip. S.   Osc.(frdel)
         1        -0.0000      0.0000      0.0000      0.0000      0.0000
         2        -0.0000     -0.0000      0.0000      0.0000      0.0000
         3        -0.0011     -0.0002     -0.0000      0.0014      0.0009
         4         0.0000      0.0000      0.0000     -0.0000     -0.0000
         5         0.0001     -0.0009     -0.0000      0.0008      0.0005
         6        -0.0025     -0.0050     -0.0004      0.0079      0.0052

 Excitation energies and oscillator strengths:
 
 Excited State   1:      Triplet-A      1.5299 eV  810.39 nm  f=0.0000  <S**2>=2.000
      71 -> 72         0.22774
      71 -> 74         0.66778
      71 <- 74         0.14194
 This state for optimization and/or second-order correction.
 Total Energy, E(TD-HF/TD-DFT) =  -826.406460282    
 Copying the excited state density for this state as the 1-particle RhoCI density.
 
 Excited State   2:      Triplet-A      1.7187 eV  721.37 nm  f=0.0000  <S**2>=2.000
      71 -> 72        -0.46761
      71 -> 74         0.12591
      71 -> 75         0.50282
 
 Excited State   3:      Singlet-A      1.9534 eV  634.70 nm  f=0.0012  <S**2>=0.000
      71 -> 72         0.70076
 
 Excited State   4:      Triplet-A      2.0938 eV  592.16 nm  f=0.0000  <S**2>=2.000
      71 -> 72         0.46558
      71 -> 73         0.24939
      71 -> 74        -0.16761
      71 -> 75         0.43215
 
 Excited State   5:      Singlet-A      2.1991 eV  563.80 nm  f=0.0026  <S**2>=0.000
      71 -> 73         0.70398
 
 Excited State   6:      Singlet-A      2.4732 eV  501.30 nm  f=0.0057  <S**2>=0.000
      71 -> 74        -0.24223
      71 -> 75         0.65761
 SavETr:  write IOETrn=   770 NScale= 10 NData=  16 NLR=1 NState=    6 LETran=     118.

 **********************************************************************

            Population analysis using the SCF Density.

 **********************************************************************

 Orbital symmetries:
       Occupied  (A) (A) (A) (A) (A) (A) (A) (A) (A) (A) (A) (A)
                 (A) (A) (A) (A) (A) (A) (A) (A) (A) (A) (A) (A)
                 (A) (A) (A) (A) (A) (A) (A) (A) (A) (A) (A) (A)
                 (A) (A) (A) (A) (A) (A) (A) (A) (A) (A) (A) (A)
                 (A) (A) (A) (A) (A) (A) (A) (A) (A) (A) (A) (A)
                 (A) (A) (A) (A) (A) (A) (A) (A) (A) (A) (A)
       Virtual   (A) (A) (A) (A) (A) (A) (A) (A) (A) (A) (A) (A)
                 (A) (A) (A) (A) (A) (A) (A) (A) (A) (A) (A) (A)
                 (A) (A) (A) (A) (A) (A) (A) (A) (A) (A) (A) (A)
                 (A) (A) (A) (A) (A) (A) (A) (A) (A) (A) (A) (A)
                 (A) (A) (A) (A) (A) (A) (A) (A) (A) (A) (A) (A)
                 (A) (A) (A) (A) (A) (A) (A) (A) (A) (A) (A) (A)
                 (A) (A) (A) (A) (A) (A) (A) (A) (A) (A) (A) (A)
                 (A) (A) (A) (A) (A) (A) (A) (A) (A) (A) (A) (A)
                 (A) (A) (A) (A) (A) (A) (A) (A) (A) (A) (A) (A)
                 (A) (A) (A) (A) (A) (A) (A) (A) (A) (A) (A) (A)
                 (A) (A) (A) (A) (A) (A) (A) (A) (A) (A) (A) (A)
                 (A) (A) (A) (A) (A) (A) (A) (A) (A) (A) (A) (A)
                 (A)
 The electronic state is 1-A.
 Alpha  occ. eigenvalues --  -18.92826 -14.22640 -10.10894 -10.08573 -10.08521
 Alpha  occ. eigenvalues --  -10.08433 -10.08024 -10.07871 -10.07765 -10.07680
 Alpha  occ. eigenvalues --  -10.07091 -10.06780 -10.06636 -10.06428 -10.06125
 Alpha  occ. eigenvalues --  -10.05695 -10.05098 -10.03735 -10.02815 -10.00617
 Alpha  occ. eigenvalues --   -0.82261  -0.81924  -0.75183  -0.69437  -0.66784
 Alpha  occ. eigenvalues --   -0.66618  -0.63183  -0.61141  -0.59453  -0.58052
 Alpha  occ. eigenvalues --   -0.56778  -0.56404  -0.51897  -0.49303  -0.46508
 Alpha  occ. eigenvalues --   -0.46176  -0.45179  -0.40154  -0.38346  -0.37287
 Alpha  occ. eigenvalues --   -0.36223  -0.34943  -0.33449  -0.32525  -0.31998
 Alpha  occ. eigenvalues --   -0.31570  -0.30817  -0.30167  -0.30112  -0.29665
 Alpha  occ. eigenvalues --   -0.29491  -0.29046  -0.28926  -0.28821  -0.26886
 Alpha  occ. eigenvalues --   -0.25614  -0.24232  -0.23032  -0.22946  -0.21983
 Alpha  occ. eigenvalues --   -0.21553  -0.20523  -0.19597  -0.15512  -0.13158
 Alpha  occ. eigenvalues --   -0.12265  -0.11559  -0.09654  -0.08506  -0.05983
 Alpha  occ. eigenvalues --    0.01725
 Alpha virt. eigenvalues --    0.11310   0.12077   0.13431   0.13943   0.19478
 Alpha virt. eigenvalues --    0.19644   0.19878   0.21734   0.22474   0.22932
 Alpha virt. eigenvalues --    0.23182   0.23630   0.24418   0.24619   0.25680
 Alpha virt. eigenvalues --    0.26513   0.27199   0.27626   0.27961   0.28402
 Alpha virt. eigenvalues --    0.29196   0.29856   0.29932   0.30170   0.31074
 Alpha virt. eigenvalues --    0.32675   0.34588   0.34999   0.35906   0.37486
 Alpha virt. eigenvalues --    0.37614   0.38455   0.42496   0.44356   0.46448
 Alpha virt. eigenvalues --    0.47675   0.48287   0.48702   0.49191   0.49243
 Alpha virt. eigenvalues --    0.51832   0.54907   0.58097   0.58654   0.60120
 Alpha virt. eigenvalues --    0.61224   0.62185   0.63344   0.64405   0.64966
 Alpha virt. eigenvalues --    0.65688   0.65838   0.66632   0.67304   0.68088
 Alpha virt. eigenvalues --    0.69206   0.69871   0.69939   0.70739   0.71222
 Alpha virt. eigenvalues --    0.71623   0.71909   0.73385   0.74448   0.74898
 Alpha virt. eigenvalues --    0.75126   0.76072   0.77477   0.79219   0.80980
 Alpha virt. eigenvalues --    0.82283   0.82847   0.83577   0.85249   0.85531
 Alpha virt. eigenvalues --    0.85876   0.86814   0.87995   0.88477   0.88639
 Alpha virt. eigenvalues --    0.89939   0.90409   0.91562   0.91903   0.93775
 Alpha virt. eigenvalues --    0.94658   0.95377   0.96867   0.96920   0.97546
 Alpha virt. eigenvalues --    0.98014   0.99330   1.00867   1.01686   1.02191
 Alpha virt. eigenvalues --    1.02724   1.04121   1.04869   1.05676   1.06835
 Alpha virt. eigenvalues --    1.07031   1.07682   1.07849   1.08496   1.09355
 Alpha virt. eigenvalues --    1.09744   1.10558   1.11426   1.12955   1.14057
 Alpha virt. eigenvalues --    1.15441   1.15986   1.17390   1.19125   1.19591
 Alpha virt. eigenvalues --    1.20217   1.25455   1.25712   1.27762   1.29634
 Alpha virt. eigenvalues --    1.30409   1.31394   1.33773   1.34871   1.35746
 Alpha virt. eigenvalues --    1.37928   1.39019   1.40607   1.41883   1.43376
 Alpha virt. eigenvalues --    1.44994   1.47129   1.53070   1.55790   1.57855
 Alpha virt. eigenvalues --    1.63433   1.64550   1.69075   1.71410   1.73119
 Alpha virt. eigenvalues --    1.85054   1.87528   1.99773   2.02860   2.06798
          Condensed to atoms (all electrons):
               1          2          3          4          5          6
     1  C    5.188121   0.301761  -0.047605   0.005612  -0.000230   0.001033
     2  C    0.301761   4.797658   0.519022  -0.040987   0.006177  -0.029413
     3  C   -0.047605   0.519022   5.079578   0.498418  -0.047340  -0.040252
     4  C    0.005612  -0.040987   0.498418   4.844084   0.324391   0.495948
     5  C   -0.000230   0.006177  -0.047340   0.324391   5.198791  -0.050903
     6  C    0.001033  -0.029413  -0.040252   0.495948  -0.050903   5.074916
     7  C    0.000003   0.000370   0.008175  -0.058298  -0.015831   0.306825
     8  C   -0.000000   0.000028  -0.000037  -0.001577  -0.003674  -0.048089
     9  N    0.000000  -0.000000   0.000000   0.000074   0.000105   0.004214
    10  C   -0.000000   0.000000  -0.000000  -0.000002   0.000031  -0.000115
    11  C    0.000000   0.000000   0.000000   0.000016  -0.000056  -0.000076
    12  C    0.000000   0.000000   0.000001   0.000130  -0.000035   0.009822
    13  C    0.000000  -0.000003  -0.000010  -0.005088   0.004434  -0.017358
    14  C   -0.000000   0.000004  -0.000199   0.001842  -0.004619  -0.029535
    15  C   -0.000000   0.000021   0.000016  -0.000059  -0.001538  -0.006402
    16  C   -0.000000  -0.000000   0.000003  -0.000029  -0.000003  -0.000128
    17  O   -0.000000  -0.000000   0.000001   0.000000   0.000000   0.000001
    18  C    0.006015  -0.045487  -0.047149  -0.047885   0.006059   0.496367
    19  C   -0.000241   0.006422   0.000856   0.006169  -0.000166  -0.049650
    20  C   -0.043265   0.527449  -0.050101  -0.047020   0.000873  -0.038957
    21  H    0.360266  -0.033552  -0.001772   0.000240  -0.000001   0.000003
    22  H    0.359790  -0.034018   0.002580  -0.000195   0.000002  -0.000001
    23  H    0.364910  -0.031862  -0.002409  -0.000078   0.000002   0.000022
    24  H   -0.006726  -0.048048   0.338857  -0.031254  -0.007880   0.004587
    25  H   -0.000002   0.000381  -0.003465  -0.034887   0.347969   0.004404
    26  H    0.000002  -0.000165  -0.000721  -0.026674   0.363688  -0.004705
    27  H    0.000003  -0.000241   0.002053  -0.031428   0.349599  -0.005884
    28  H   -0.000000  -0.000006  -0.000073   0.000913   0.000239   0.004753
    29  H    0.000000   0.000000  -0.000000   0.000002   0.000002   0.000028
    30  H   -0.000000  -0.000000   0.000000  -0.000002  -0.000074  -0.000054
    31  H    0.000000   0.000000   0.000000  -0.000000   0.000000   0.000005
    32  H    0.000000   0.000000   0.000000   0.000000   0.000000   0.000007
    33  H    0.000000  -0.000000  -0.000000   0.000000   0.000004  -0.000177
    34  H   -0.000000  -0.000000   0.000000   0.000000  -0.000001  -0.000001
    35  H    0.000002  -0.000197   0.000030   0.000065  -0.000002  -0.005806
    36  H   -0.000004   0.000450  -0.000009  -0.000164   0.000002   0.004246
    37  H   -0.007712  -0.045472   0.005047   0.000867   0.000011   0.004532
    38  H    0.000004  -0.000228   0.000006  -0.000018   0.000005  -0.004442
               7          8          9         10         11         12
     1  C    0.000003  -0.000000   0.000000  -0.000000   0.000000   0.000000
     2  C    0.000370   0.000028  -0.000000   0.000000   0.000000   0.000000
     3  C    0.008175  -0.000037   0.000000  -0.000000   0.000000   0.000001
     4  C   -0.058298  -0.001577   0.000074  -0.000002   0.000016   0.000130
     5  C   -0.015831  -0.003674   0.000105   0.000031  -0.000056  -0.000035
     6  C    0.306825  -0.048089   0.004214  -0.000115  -0.000076   0.009822
     7  C    4.995790   0.536101  -0.032361   0.002021  -0.021085  -0.033621
     8  C    0.536101   5.100935   0.197213  -0.058255  -0.021836  -0.044197
     9  N   -0.032361   0.197213   7.184737   0.300686   0.225270  -0.037134
    10  C    0.002021  -0.058255   0.300686   4.989189  -0.059454   0.002244
    11  C   -0.021085  -0.021836   0.225270  -0.059454   4.982165   0.575216
    12  C   -0.033621  -0.044197  -0.037134   0.002244   0.575216   4.966724
    13  C    0.332149  -0.027721  -0.027873   0.000670  -0.042261   0.394490
    14  C   -0.004408   0.015424   0.000638   0.000005   0.012901  -0.059444
    15  C    0.011634   0.000415   0.000013  -0.000000   0.000612  -0.003313
    16  C    0.000176   0.000001   0.000000  -0.000000   0.000005   0.000048
    17  O    0.000001  -0.000000   0.000000   0.000000   0.000000   0.000000
    18  C   -0.061343  -0.007498   0.000123  -0.000002   0.000019   0.000052
    19  C   -0.009916   0.001485  -0.000180   0.000002   0.000059  -0.000060
    20  C    0.008030   0.000094   0.000002   0.000000   0.000000   0.000001
    21  H   -0.000000  -0.000000   0.000000  -0.000000  -0.000000  -0.000000
    22  H   -0.000000   0.000000   0.000000  -0.000000  -0.000000  -0.000000
    23  H   -0.000000   0.000000  -0.000000   0.000000   0.000000   0.000000
    24  H   -0.000246  -0.000002  -0.000000   0.000000  -0.000000  -0.000000
    25  H    0.000581   0.000031  -0.000000   0.000000  -0.000001  -0.000001
    26  H   -0.000331   0.000057   0.000021   0.000001  -0.000021  -0.000171
    27  H    0.009843   0.006729  -0.000585  -0.000126   0.000159   0.000109
    28  H   -0.032318   0.351190  -0.054785  -0.002018   0.002508   0.001080
    29  H    0.000219  -0.003608  -0.044444   0.372549   0.003172  -0.000154
    30  H    0.000687   0.012838  -0.069745   0.316424   0.012849   0.000879
    31  H   -0.000132   0.003016  -0.044475   0.371842  -0.003625   0.000175
    32  H    0.000792   0.003179  -0.060170  -0.001767   0.351473  -0.025271
    33  H    0.005209   0.000247   0.005160  -0.000114  -0.046017   0.337665
    34  H    0.000000   0.000000  -0.000000  -0.000000  -0.000000   0.000004
    35  H    0.001376  -0.001298   0.000087  -0.000002  -0.000127  -0.000095
    36  H    0.000796   0.000261  -0.000001   0.000000   0.000000   0.000000
    37  H   -0.000230  -0.000007  -0.000000   0.000000  -0.000000  -0.000000
    38  H    0.002428   0.002785  -0.000215   0.000003   0.000033   0.000009
              13         14         15         16         17         18
     1  C    0.000000  -0.000000  -0.000000  -0.000000  -0.000000   0.006015
     2  C   -0.000003   0.000004   0.000021  -0.000000  -0.000000  -0.045487
     3  C   -0.000010  -0.000199   0.000016   0.000003   0.000001  -0.047149
     4  C   -0.005088   0.001842  -0.000059  -0.000029   0.000000  -0.047885
     5  C    0.004434  -0.004619  -0.001538  -0.000003   0.000000   0.006059
     6  C   -0.017358  -0.029535  -0.006402  -0.000128   0.000001   0.496367
     7  C    0.332149  -0.004408   0.011634   0.000176   0.000001  -0.061343
     8  C   -0.027721   0.015424   0.000415   0.000001  -0.000000  -0.007498
     9  N   -0.027873   0.000638   0.000013   0.000000   0.000000   0.000123
    10  C    0.000670   0.000005  -0.000000  -0.000000   0.000000  -0.000002
    11  C   -0.042261   0.012901   0.000612   0.000005   0.000000   0.000019
    12  C    0.394490  -0.059444  -0.003313   0.000048   0.000000   0.000052
    13  C    5.440828   0.392020  -0.457923  -0.020349  -0.000188   0.002249
    14  C    0.392020   6.379472   0.102776  -0.490878  -0.018380  -0.000177
    15  C   -0.457923   0.102776   6.835563   0.009738  -0.101245  -0.000556
    16  C   -0.020349  -0.490878   0.009738   5.451688   0.514626  -0.000017
    17  O   -0.000188  -0.018380  -0.101245   0.514626   8.225519  -0.000000
    18  C    0.002249  -0.000177  -0.000556  -0.000017  -0.000000   4.864871
    19  C   -0.002135  -0.001139  -0.000045   0.000000  -0.000000   0.315940
    20  C   -0.000113  -0.000020   0.000019   0.000001   0.000000   0.495787
    21  H    0.000000  -0.000000   0.000000   0.000000   0.000000  -0.000185
    22  H    0.000000  -0.000000   0.000000   0.000000   0.000000   0.000299
    23  H   -0.000000   0.000000  -0.000000  -0.000000   0.000000  -0.000155
    24  H    0.000002  -0.000002  -0.000003  -0.000000   0.000000   0.000954
    25  H    0.000081   0.000102   0.000024  -0.000000   0.000000  -0.000199
    26  H   -0.000026   0.007457   0.003595   0.000021  -0.000017  -0.000175
    27  H   -0.001984  -0.000683   0.000013   0.000001  -0.000000   0.000337
    28  H    0.001609  -0.000468  -0.000007  -0.000000   0.000000   0.001729
    29  H   -0.000079  -0.000001  -0.000000   0.000000   0.000000  -0.000002
    30  H    0.000076  -0.000005   0.000000   0.000000  -0.000000   0.000001
    31  H   -0.000063  -0.000000   0.000000   0.000000  -0.000000   0.000000
    32  H    0.002608  -0.000413  -0.000011  -0.000000  -0.000000  -0.000000
    33  H   -0.033368  -0.002619   0.000560  -0.000031   0.000000  -0.000001
    34  H   -0.001221  -0.044721  -0.232153   0.441712  -0.082822  -0.000000
    35  H    0.005622   0.001436  -0.000158  -0.000006   0.000000  -0.027223
    36  H   -0.000066   0.000005   0.000008   0.000000  -0.000000  -0.036547
    37  H    0.000002  -0.000000  -0.000001  -0.000000   0.000000  -0.033641
    38  H   -0.000240  -0.000034   0.000000   0.000000  -0.000000  -0.028762
              19         20         21         22         23         24
     1  C   -0.000241  -0.043265   0.360266   0.359790   0.364910  -0.006726
     2  C    0.006422   0.527449  -0.033552  -0.034018  -0.031862  -0.048048
     3  C    0.000856  -0.050101  -0.001772   0.002580  -0.002409   0.338857
     4  C    0.006169  -0.047020   0.000240  -0.000195  -0.000078  -0.031254
     5  C   -0.000166   0.000873  -0.000001   0.000002   0.000002  -0.007880
     6  C   -0.049650  -0.038957   0.000003  -0.000001   0.000022   0.004587
     7  C   -0.009916   0.008030  -0.000000  -0.000000  -0.000000  -0.000246
     8  C    0.001485   0.000094  -0.000000   0.000000   0.000000  -0.000002
     9  N   -0.000180   0.000002   0.000000   0.000000  -0.000000  -0.000000
    10  C    0.000002   0.000000  -0.000000  -0.000000   0.000000   0.000000
    11  C    0.000059   0.000000  -0.000000  -0.000000   0.000000  -0.000000
    12  C   -0.000060   0.000001  -0.000000  -0.000000   0.000000  -0.000000
    13  C   -0.002135  -0.000113   0.000000   0.000000  -0.000000   0.000002
    14  C   -0.001139  -0.000020  -0.000000  -0.000000   0.000000  -0.000002
    15  C   -0.000045   0.000019   0.000000   0.000000  -0.000000  -0.000003
    16  C    0.000000   0.000001   0.000000   0.000000  -0.000000  -0.000000
    17  O   -0.000000   0.000000   0.000000   0.000000   0.000000   0.000000
    18  C    0.315940   0.495787  -0.000185   0.000299  -0.000155   0.000954
    19  C    5.179538  -0.048353   0.000002  -0.000002   0.000003   0.000012
    20  C   -0.048353   5.077464   0.002010  -0.001454  -0.002194   0.004758
    21  H    0.000002   0.002010   0.611335  -0.031813  -0.035628   0.004047
    22  H   -0.000002  -0.001454  -0.031813   0.611019  -0.034146   0.000069
    23  H    0.000003  -0.002194  -0.035628  -0.034146   0.589046   0.000594
    24  H    0.000012   0.004758   0.004047   0.000069   0.000594   0.643368
    25  H    0.000002  -0.000006  -0.000002   0.000000   0.000001   0.006448
    26  H    0.000004   0.000036   0.000000  -0.000000  -0.000000   0.000256
    27  H   -0.000003  -0.000003  -0.000000  -0.000000   0.000000   0.000090
    28  H    0.000244  -0.000125   0.000000   0.000000  -0.000000   0.000001
    29  H    0.000001   0.000000   0.000000   0.000000  -0.000000   0.000000
    30  H   -0.000000  -0.000000  -0.000000  -0.000000   0.000000  -0.000000
    31  H    0.000000   0.000000   0.000000   0.000000  -0.000000  -0.000000
    32  H    0.000000   0.000000   0.000000  -0.000000  -0.000000  -0.000000
    33  H    0.000002  -0.000000   0.000000   0.000000  -0.000000   0.000000
    34  H   -0.000000   0.000000   0.000000   0.000000  -0.000000  -0.000000
    35  H    0.367904   0.000997  -0.000000   0.000000  -0.000000  -0.000000
    36  H    0.349096  -0.001989   0.000000   0.000003  -0.000001  -0.000000
    37  H   -0.007723   0.336816   0.000069   0.005108   0.000413  -0.000228
    38  H    0.358529  -0.000135  -0.000000  -0.000001   0.000000  -0.000000
              25         26         27         28         29         30
     1  C   -0.000002   0.000002   0.000003  -0.000000   0.000000  -0.000000
     2  C    0.000381  -0.000165  -0.000241  -0.000006   0.000000  -0.000000
     3  C   -0.003465  -0.000721   0.002053  -0.000073  -0.000000   0.000000
     4  C   -0.034887  -0.026674  -0.031428   0.000913   0.000002  -0.000002
     5  C    0.347969   0.363688   0.349599   0.000239   0.000002  -0.000074
     6  C    0.004404  -0.004705  -0.005884   0.004753   0.000028  -0.000054
     7  C    0.000581  -0.000331   0.009843  -0.032318   0.000219   0.000687
     8  C    0.000031   0.000057   0.006729   0.351190  -0.003608   0.012838
     9  N   -0.000000   0.000021  -0.000585  -0.054785  -0.044444  -0.069745
    10  C    0.000000   0.000001  -0.000126  -0.002018   0.372549   0.316424
    11  C   -0.000001  -0.000021   0.000159   0.002508   0.003172   0.012849
    12  C   -0.000001  -0.000171   0.000109   0.001080  -0.000154   0.000879
    13  C    0.000081  -0.000026  -0.001984   0.001609  -0.000079   0.000076
    14  C    0.000102   0.007457  -0.000683  -0.000468  -0.000001  -0.000005
    15  C    0.000024   0.003595   0.000013  -0.000007  -0.000000   0.000000
    16  C   -0.000000   0.000021   0.000001  -0.000000   0.000000   0.000000
    17  O    0.000000  -0.000017  -0.000000   0.000000   0.000000  -0.000000
    18  C   -0.000199  -0.000175   0.000337   0.001729  -0.000002   0.000001
    19  C    0.000002   0.000004  -0.000003   0.000244   0.000001  -0.000000
    20  C   -0.000006   0.000036  -0.000003  -0.000125   0.000000  -0.000000
    21  H   -0.000002   0.000000  -0.000000   0.000000   0.000000  -0.000000
    22  H    0.000000  -0.000000  -0.000000   0.000000   0.000000  -0.000000
    23  H    0.000001  -0.000000   0.000000  -0.000000  -0.000000   0.000000
    24  H    0.006448   0.000256   0.000090   0.000001   0.000000  -0.000000
    25  H    0.637793  -0.029040  -0.033832   0.000003  -0.000000  -0.000000
    26  H   -0.029040   0.525894  -0.030483  -0.000000   0.000000  -0.000003
    27  H   -0.033832  -0.030483   0.600264  -0.000165  -0.000010   0.000414
    28  H    0.000003  -0.000000  -0.000165   0.617622   0.005042  -0.000970
    29  H   -0.000000   0.000000  -0.000010   0.005042   0.621519  -0.048733
    30  H   -0.000000  -0.000003   0.000414  -0.000970  -0.048733   0.720444
    31  H   -0.000000   0.000000  -0.000000   0.000079  -0.028389  -0.048822
    32  H    0.000000   0.000000  -0.000001  -0.000228   0.000072  -0.001176
    33  H   -0.000000   0.000000  -0.000006   0.000022   0.000005  -0.000048
    34  H    0.000000   0.000006   0.000000  -0.000000   0.000000   0.000000
    35  H   -0.000000  -0.000003   0.000003  -0.000019  -0.000000   0.000000
    36  H   -0.000000   0.000000  -0.000000   0.000015   0.000000  -0.000000
    37  H   -0.000000  -0.000000  -0.000000   0.000001  -0.000000   0.000000
    38  H   -0.000000   0.000000  -0.000003   0.000688  -0.000000  -0.000000
              31         32         33         34         35         36
     1  C    0.000000   0.000000   0.000000  -0.000000   0.000002  -0.000004
     2  C    0.000000   0.000000  -0.000000  -0.000000  -0.000197   0.000450
     3  C    0.000000   0.000000  -0.000000   0.000000   0.000030  -0.000009
     4  C   -0.000000   0.000000   0.000000   0.000000   0.000065  -0.000164
     5  C    0.000000   0.000000   0.000004  -0.000001  -0.000002   0.000002
     6  C    0.000005   0.000007  -0.000177  -0.000001  -0.005806   0.004246
     7  C   -0.000132   0.000792   0.005209   0.000000   0.001376   0.000796
     8  C    0.003016   0.003179   0.000247   0.000000  -0.001298   0.000261
     9  N   -0.044475  -0.060170   0.005160  -0.000000   0.000087  -0.000001
    10  C    0.371842  -0.001767  -0.000114  -0.000000  -0.000002   0.000000
    11  C   -0.003625   0.351473  -0.046017  -0.000000  -0.000127   0.000000
    12  C    0.000175  -0.025271   0.337665   0.000004  -0.000095   0.000000
    13  C   -0.000063   0.002608  -0.033368  -0.001221   0.005622  -0.000066
    14  C   -0.000000  -0.000413  -0.002619  -0.044721   0.001436   0.000005
    15  C    0.000000  -0.000011   0.000560  -0.232153  -0.000158   0.000008
    16  C    0.000000  -0.000000  -0.000031   0.441712  -0.000006   0.000000
    17  O   -0.000000  -0.000000   0.000000  -0.082822   0.000000  -0.000000
    18  C    0.000000  -0.000000  -0.000001  -0.000000  -0.027223  -0.036547
    19  C    0.000000   0.000000   0.000002  -0.000000   0.367904   0.349096
    20  C    0.000000   0.000000  -0.000000   0.000000   0.000997  -0.001989
    21  H    0.000000   0.000000   0.000000   0.000000  -0.000000   0.000000
    22  H    0.000000  -0.000000   0.000000   0.000000   0.000000   0.000003
    23  H   -0.000000  -0.000000  -0.000000  -0.000000  -0.000000  -0.000001
    24  H   -0.000000  -0.000000   0.000000  -0.000000  -0.000000  -0.000000
    25  H   -0.000000   0.000000  -0.000000   0.000000  -0.000000  -0.000000
    26  H    0.000000   0.000000   0.000000   0.000006  -0.000003   0.000000
    27  H   -0.000000  -0.000001  -0.000006   0.000000   0.000003  -0.000000
    28  H    0.000079  -0.000228   0.000022  -0.000000  -0.000019   0.000015
    29  H   -0.028389   0.000072   0.000005   0.000000  -0.000000   0.000000
    30  H   -0.048822  -0.001176  -0.000048   0.000000   0.000000  -0.000000
    31  H    0.625334   0.005279   0.000009   0.000000   0.000000  -0.000000
    32  H    0.005279   0.644998  -0.004010   0.000000  -0.000001   0.000000
    33  H    0.000009  -0.004010   0.639057  -0.000015  -0.000004   0.000000
    34  H    0.000000   0.000000  -0.000015   0.887093   0.000000   0.000000
    35  H    0.000000  -0.000001  -0.000004   0.000000   0.545123  -0.030648
    36  H   -0.000000   0.000000   0.000000   0.000000  -0.030648   0.633556
    37  H   -0.000000  -0.000000   0.000000  -0.000000   0.000146   0.006229
    38  H   -0.000000   0.000000  -0.000000  -0.000000  -0.033097  -0.033795
              37         38
     1  C   -0.007712   0.000004
     2  C   -0.045472  -0.000228
     3  C    0.005047   0.000006
     4  C    0.000867  -0.000018
     5  C    0.000011   0.000005
     6  C    0.004532  -0.004442
     7  C   -0.000230   0.002428
     8  C   -0.000007   0.002785
     9  N   -0.000000  -0.000215
    10  C    0.000000   0.000003
    11  C   -0.000000   0.000033
    12  C   -0.000000   0.000009
    13  C    0.000002  -0.000240
    14  C   -0.000000  -0.000034
    15  C   -0.000001   0.000000
    16  C   -0.000000   0.000000
    17  O    0.000000  -0.000000
    18  C   -0.033641  -0.028762
    19  C   -0.007723   0.358529
    20  C    0.336816  -0.000135
    21  H    0.000069  -0.000000
    22  H    0.005108  -0.000001
    23  H    0.000413   0.000000
    24  H   -0.000228  -0.000000
    25  H   -0.000000  -0.000000
    26  H   -0.000000   0.000000
    27  H   -0.000000  -0.000003
    28  H    0.000001   0.000688
    29  H   -0.000000  -0.000000
    30  H    0.000000  -0.000000
    31  H   -0.000000  -0.000000
    32  H   -0.000000   0.000000
    33  H    0.000000  -0.000000
    34  H   -0.000000  -0.000000
    35  H    0.000146  -0.033097
    36  H    0.006229  -0.033795
    37  H    0.649460   0.000245
    38  H    0.000245   0.598894
 Mulliken charges:
               1
     1  C   -0.481739
     2  C    0.149936
     3  C   -0.213502
     4  C    0.146873
     5  C   -0.470031
     6  C   -0.079763
     7  C    0.046911
     8  C   -0.014231
     9  N   -0.546375
    10  C   -0.233812
    11  C    0.028098
    12  C   -0.085153
    13  C    0.061227
    14  C   -0.256337
    15  C   -0.161594
    16  C    0.093420
    17  O   -0.537496
    18  C    0.146204
    19  C   -0.466657
    20  C   -0.220603
    21  H    0.124980
    22  H    0.122758
    23  H    0.151481
    24  H    0.090346
    25  H    0.103616
    26  H    0.191497
    27  H    0.135817
    28  H    0.103444
    29  H    0.122808
    30  H    0.105020
    31  H    0.119769
    32  H    0.084637
    33  H    0.098468
    34  H    0.032117
    35  H    0.175897
    36  H    0.108556
    37  H    0.086068
    38  H    0.137344
 Sum of Mulliken charges =  -1.00000
 Mulliken charges with hydrogens summed into heavy atoms:
               1
     1  C   -0.082519
     2  C    0.149936
     3  C   -0.123155
     4  C    0.146873
     5  C   -0.039101
     6  C   -0.079763
     7  C    0.046911
     8  C    0.089213
     9  N   -0.546375
    10  C    0.113784
    11  C    0.112735
    12  C    0.013315
    13  C    0.061227
    14  C   -0.256337
    15  C   -0.161594
    16  C    0.125537
    17  O   -0.537496
    18  C    0.146204
    19  C   -0.044860
    20  C   -0.134535
 Electronic spatial extent (au):  <R**2>=           6117.0511
 Charge=             -1.0000 electrons
 Dipole moment (field-independent basis, Debye):
    X=             -3.1729    Y=            -10.3123    Z=              0.9451  Tot=             10.8307
 Quadrupole moment (field-independent basis, Debye-Ang):
   XX=           -143.4953   YY=           -167.6228   ZZ=           -122.9052
   XY=            -21.8962   XZ=             -1.4731   YZ=              0.6955
 Traceless Quadrupole moment (field-independent basis, Debye-Ang):
   XX=              1.1791   YY=            -22.9483   ZZ=             21.7692
   XY=            -21.8962   XZ=             -1.4731   YZ=              0.6955
 Octapole moment (field-independent basis, Debye-Ang**2):
  XXX=            -18.4601  YYY=           -170.9910  ZZZ=              1.6729  XYY=           -107.5073
  XXY=            -60.4666  XXZ=              9.2822  XZZ=             14.0607  YZZ=             -0.3919
  YYZ=              2.5107  XYZ=              7.9090
 Hexadecapole moment (field-independent basis, Debye-Ang**3):
 XXXX=          -4617.1457 YYYY=          -3714.3237 ZZZZ=          -1011.2770 XXXY=           -125.6184
 XXXZ=            -15.4047 YYYX=           -377.6788 YYYZ=             14.0458 ZZZX=             -0.1691
 ZZZY=              6.7189 XXYY=          -1524.8819 XXZZ=           -945.6638 YYZZ=           -668.8534
 XXYZ=            -10.7520 YYXZ=             -1.2525 ZZXY=              4.7081
 N-N= 1.433997349331D+03 E-N=-4.806738062325D+03  KE= 8.218140041382D+02
 Unable to Open any file for archive entry.
 1\1\GINC-N2\SP\RB3LYP TD-FC\6-31G\C18H18N1O1(1-)\HPCMGAC13\13-Jun-2025
 \0\\# td=(50-50,nstates=3) b3lyp/6-31g\\[No Title]\\-1,1\C,0,4.532198,
 -2.048523,0.147128\C,0,3.077257,-1.630899,0.099619\C,0,2.435066,-1.131
 349,1.240326\C,0,1.10234,-0.697282,1.207801\C,0,0.464309,-0.129228,2.4
 55835\C,0,0.371621,-0.780496,-0.001418\C,0,-1.064934,-0.352538,-0.0472
 12\C,0,-2.029233,-1.310589,-0.00545\N,0,-3.431421,-1.04079,-0.092021\C
 ,0,-4.304179,-1.843932,0.761122\C,0,-3.781774,0.33933,-0.254339\C,0,-2
 .85325,1.320691,-0.297317\C,0,-1.41652,1.07373,-0.171957\C,0,-0.505601
 ,2.09537,-0.181321\C,0,0.278581,3.073713,-0.183973\C,0,1.099206,4.1917
 38,-0.190069\O,0,2.373208,4.26204,-0.083775\C,0,1.00999,-1.271598,-1.1
 63661\C,0,0.27592,-1.32691,-2.488037\C,0,2.346828,-1.693768,-1.093068\
 H,0,4.787072,-2.510113,1.109143\H,0,4.768752,-2.767604,-0.646128\H,0,5
 .200119,-1.185467,0.015616\H,0,2.986256,-1.064056,2.176239\H,0,1.10048
 8,-0.292591,3.332997\H,0,0.302829,0.949085,2.340917\H,0,-0.516582,-0.5
 81476,2.641427\H,0,-1.779187,-2.365748,0.055279\H,0,-4.059305,-2.90580
 6,0.640617\H,0,-4.220853,-1.593909,1.838129\H,0,-5.347912,-1.696725,0.
 458932\H,0,-4.843096,0.524864,-0.390209\H,0,-3.178259,2.34329,-0.46957
 6\H,0,0.533765,5.146274,-0.304151\H,0,-0.214135,-0.369932,-2.697324\H,
 0,0.969285,-1.549425,-3.307202\H,0,2.829704,-2.065991,-1.994741\H,0,-0
 .511616,-2.090211,-2.489689\\Version=ES64L-G16RevC.02\State=1-A\HF=-82
 6.4626845\RMSD=5.411e-09\PG=C01 [X(C18H18N1O1)]\\@
 The archive entry for this job was punched.


 THE FIRST MORNING OF CREATION WROTE WHAT THE LAST DAWN OF
 RECKONING SHALL READ. -- OMAR KHAYYAM
 Job cpu time:       0 days  0 hours 14 minutes 17.0 seconds.
 Elapsed time:       0 days  0 hours  0 minutes 55.6 seconds.
 File lengths (MBytes):  RWF=    482 Int=      0 D2E=      0 Chk=     16 Scr=      2
 Normal termination of Gaussian 16 at Fri Jun 13 11:34:04 2025.
