 Entering Gaussian System, Link 0=g16
 Input=M2042.gjf
 Output=M2042.log
 Initial command:
 /hpc/softwares/Gaussian/g16/l1.exe "/hpc/home/hpcmgac13/pbs.11129.admin1.x8z/Gau-188218.inp" -scrdir="/hpc/home/hpcmgac13/pbs.11129.admin1.x8z/"
 Default linda workers: n2
 Default is to use  16 SMP processors on each worker.
 Entering Link 1 = /hpc/softwares/Gaussian/g16/l1.exe PID=    188219.
  
 Copyright (c) 1988-2021, Gaussian, Inc.  All Rights Reserved.
  
 This is part of the Gaussian(R) 16 program.  It is based on
 the Gaussian(R) 09 system (copyright 2009, Gaussian, Inc.),
 the Gaussian(R) 03 system (copyright 2003, Gaussian, Inc.),
 the Gaussian(R) 98 system (copyright 1998, Gaussian, Inc.),
 the Gaussian(R) 94 system (copyright 1995, Gaussian, Inc.),
 the Gaussian 92(TM) system (copyright 1992, Gaussian, Inc.),
 the Gaussian 90(TM) system (copyright 1990, Gaussian, Inc.),
 the Gaussian 88(TM) system (copyright 1988, Gaussian, Inc.),
 the Gaussian 86(TM) system (copyright 1986, Carnegie Mellon
 University), and the Gaussian 82(TM) system (copyright 1983,
 Carnegie Mellon University). Gaussian is a federally registered
 trademark of Gaussian, Inc.
  
 This software contains proprietary and confidential information,
 including trade secrets, belonging to Gaussian, Inc.
  
 This software is provided under written license and may be
 used, copied, transmitted, or stored only in accord with that
 written license.
  
 The following legend is applicable only to US Government
 contracts under FAR:
  
                    RESTRICTED RIGHTS LEGEND
  
 Use, reproduction and disclosure by the US Government is
 subject to restrictions as set forth in subparagraphs (a)
 and (c) of the Commercial Computer Software - Restricted
 Rights clause in FAR 52.227-19.
  
 Gaussian, Inc.
 340 Quinnipiac St., Bldg. 40, Wallingford CT 06492
  
  
 ---------------------------------------------------------------
 Warning -- This program may not be used in any manner that
 competes with the business of Gaussian, Inc. or will provide
 assistance to any competitor of Gaussian, Inc.  The licensee
 of this program is prohibited from giving any competitor of
 Gaussian, Inc. access to this program.  By using this program,
 the user acknowledges that Gaussian, Inc. is engaged in the
 business of creating and licensing software in the field of
 computational chemistry and represents and warrants to the
 licensee that it is not a competitor of Gaussian, Inc. and that
 it will not use this program in any manner prohibited above.
 ---------------------------------------------------------------
  

 Cite this work as:
 Gaussian 16, Revision C.02,
 M. J. Frisch, G. W. Trucks, H. B. Schlegel, G. E. Scuseria, 
 M. A. Robb, J. R. Cheeseman, G. Scalmani, V. Barone, 
 G. A. Petersson, H. Nakatsuji, X. Li, M. Caricato, A. V. Marenich, 
 J. Bloino, B. G. Janesko, R. Gomperts, B. Mennucci, H. P. Hratchian, 
 J. V. Ortiz, A. F. Izmaylov, J. L. Sonnenberg, D. Williams-Young, 
 F. Ding, F. Lipparini, F. Egidi, J. Goings, B. Peng, A. Petrone, 
 T. Henderson, D. Ranasinghe, V. G. Zakrzewski, J. Gao, N. Rega, 
 G. Zheng, W. Liang, M. Hada, M. Ehara, K. Toyota, R. Fukuda, 
 J. Hasegawa, M. Ishida, T. Nakajima, Y. Honda, O. Kitao, H. Nakai, 
 T. Vreven, K. Throssell, J. A. Montgomery, Jr., J. E. Peralta, 
 F. Ogliaro, M. J. Bearpark, J. J. Heyd, E. N. Brothers, K. N. Kudin, 
 V. N. Staroverov, T. A. Keith, R. Kobayashi, J. Normand, 
 K. Raghavachari, A. P. Rendell, J. C. Burant, S. S. Iyengar, 
 J. Tomasi, M. Cossi, J. M. Millam, M. Klene, C. Adamo, R. Cammi, 
 J. W. Ochterski, R. L. Martin, K. Morokuma, O. Farkas, 
 J. B. Foresman, and D. J. Fox, Gaussian, Inc., Wallingford CT, 2019.
 
 ******************************************
 Gaussian 16:  ES64L-G16RevC.02  7-Dec-2021
                13-Jun-2025 
 ******************************************
 SetLPE:    new flags="-opt 'Tsnet.Node.lindarsharg: ssh'  -nodelist 'n2.head.cm.mguif.local' -env GAUSS_MDEF=4294967296 -env GAUSS_EXEDIR="/hpc/softwares/Gaussian/g16/bsd:/hpc/softwares/Gaussian/g16""
 Will use up to    1 processors via Linda.
 ----------------------------------
 # td=(50-50,nstates=3) b3lyp/6-31g
 ----------------------------------
 1/38=1,172=1/1;
 2/12=2,17=6,18=5,40=1/2;
 3/5=1,6=6,11=9,25=1,30=1,74=-5/1,2,3,8;
 4//1;
 5/5=2,38=5/2;
 8/6=1,10=2,108=3/1;
 9/41=3,42=1,48=2,70=2/14;
 6/7=2,8=2,9=2,10=2/1;
 99/5=1,9=1/99;
 ----------
 [No Title]
 ----------
 Symbolic Z-matrix:
 Charge =  0 Multiplicity = 1
 C                     6.76137  -1.57102   0.42175 
 C                     5.31966  -1.21155   0.81524 
 C                     4.65983  -0.21351  -0.15411 
 C                     3.21572   0.14672   0.23394 
 C                     2.56378   1.14877  -0.75011 
 C                     1.15417   1.49407  -0.41608 
 C                     0.50688   2.63673  -0.02829 
 C                    -0.88114   2.31885   0.15191 
 C                    -1.0416    0.97733  -0.1232 
 C                    -2.14278   0.03985  -0.12473 
 C                    -3.36501   0.39905   0.34913 
 N                    -4.47977  -0.43361   0.3189 
 C                    -5.7048   -0.0623    1.02032 
 C                    -4.33443  -1.71676  -0.232 
 C                    -3.16289  -2.17052  -0.71013 
 C                    -1.88504  -1.36005  -0.6802 
 O                     0.21544   0.45255  -0.48119 
 H                     7.20408  -2.28177   1.12924 
 H                     6.79572  -2.02651  -0.57604 
 H                     7.3989   -0.67801   0.40123 
 H                     5.31032  -0.78821   1.83045 
 H                     4.71116  -2.12675   0.85896 
 H                     4.66956  -0.63669  -1.17069 
 H                     5.26787   0.70379  -0.19747 
 H                     3.19857   0.57664   1.24541 
 H                     2.60202  -0.76317   0.2698 
 H                     2.61189   0.72602  -1.76502 
 H                     3.14756   2.07806  -0.76911 
 H                     0.96373   3.60575   0.10572 
 H                    -1.65984   3.00996   0.43564 
 H                    -3.54199   1.38214   0.77125 
 H                    -5.83956   1.02264   0.97874 
 H                    -6.56501  -0.52856   0.53076 
 H                    -5.69757  -0.37057   2.07641 
 H                    -5.24212  -2.30907  -0.25697 
 H                    -3.126    -3.16202  -1.14967 
 H                    -1.1087   -1.86736  -0.08267 
 H                    -1.44802  -1.28534  -1.68935 
 
                          Input orientation:                          
 ---------------------------------------------------------------------
 Center     Atomic      Atomic             Coordinates (Angstroms)
 Number     Number       Type             X           Y           Z
 ---------------------------------------------------------------------
      1          6           0        6.761372   -1.571019    0.421747
      2          6           0        5.319659   -1.211554    0.815243
      3          6           0        4.659833   -0.213514   -0.154112
      4          6           0        3.215719    0.146724    0.233943
      5          6           0        2.563775    1.148767   -0.750114
      6          6           0        1.154173    1.494074   -0.416075
      7          6           0        0.506879    2.636729   -0.028292
      8          6           0       -0.881141    2.318848    0.151908
      9          6           0       -1.041603    0.977329   -0.123196
     10          6           0       -2.142779    0.039851   -0.124731
     11          6           0       -3.365011    0.399050    0.349126
     12          7           0       -4.479772   -0.433607    0.318897
     13          6           0       -5.704800   -0.062301    1.020315
     14          6           0       -4.334430   -1.716759   -0.232003
     15          6           0       -3.162894   -2.170524   -0.710130
     16          6           0       -1.885037   -1.360047   -0.680199
     17          8           0        0.215441    0.452548   -0.481187
     18          1           0        7.204078   -2.281766    1.129236
     19          1           0        6.795722   -2.026506   -0.576037
     20          1           0        7.398900   -0.678014    0.401231
     21          1           0        5.310318   -0.788210    1.830448
     22          1           0        4.711163   -2.126747    0.858964
     23          1           0        4.669563   -0.636692   -1.170691
     24          1           0        5.267871    0.703791   -0.197468
     25          1           0        3.198568    0.576642    1.245414
     26          1           0        2.602022   -0.763172    0.269803
     27          1           0        2.611887    0.726022   -1.765018
     28          1           0        3.147561    2.078060   -0.769106
     29          1           0        0.963732    3.605746    0.105719
     30          1           0       -1.659836    3.009958    0.435636
     31          1           0       -3.541990    1.382136    0.771252
     32          1           0       -5.839558    1.022643    0.978736
     33          1           0       -6.565012   -0.528562    0.530760
     34          1           0       -5.697569   -0.370574    2.076410
     35          1           0       -5.242115   -2.309075   -0.256967
     36          1           0       -3.126002   -3.162025   -1.149669
     37          1           0       -1.108698   -1.867358   -0.082668
     38          1           0       -1.448017   -1.285344   -1.689354
 ---------------------------------------------------------------------
                    Distance matrix (angstroms):
                    1          2          3          4          5
     1  C    0.000000
     2  C    1.537072   0.000000
     3  C    2.567275   1.539839   0.000000
     4  C    3.944308   2.570874   1.538123   0.000000
     5  C    5.137150   3.951753   2.569920   1.548383   0.000000
     6  C    6.444953   5.117406   3.908214   2.547125   1.489227
     7  C    7.551580   6.219621   5.038526   3.688727   2.639295
     8  C    8.579737   7.166148   6.099910   4.637792   3.748357
     9  C    8.226631   6.792461   5.824555   4.352269   3.663491
    10  C    9.065178   7.624798   6.807392   5.371552   4.875700
    11  C   10.316495   8.845044   8.063908   6.586573   6.076258
    12  N   11.299009   9.842785   9.154483   7.717809   7.297825
    13  C   12.571394  11.086096  10.432055   8.957552   8.542274
    14  C   11.116000   9.723857   9.119352   7.790663   7.487651
    15  C   10.006578   8.671799   8.082951   6.851833   6.619217
    16  C    8.718898   7.359758   6.665330   5.396640   5.107931
    17  O    6.910812   5.522953   4.505911   3.099453   2.464085
    18  H    1.096216   2.189744   3.521055   4.754589   6.069014
    19  H    1.097370   2.185994   2.833193   4.265609   5.293584
    20  H    1.097416   2.186164   2.833135   4.266987   5.295390
    21  H    2.168591   1.099977   2.166076   2.794687   4.237296
    22  H    2.168721   1.099890   2.165506   2.792073   4.234312
    23  H    2.790070   2.167262   1.101184   2.168041   2.792685
    24  H    2.790830   2.167213   1.101380   2.169739   2.795632
    25  H    4.240807   2.807440   2.172168   1.099180   2.170811
    26  H    4.239799   2.807864   2.171731   1.098099   2.167303
    27  H    5.222697   4.212360   2.769807   2.167036   1.100481
    28  H    5.271958   4.248498   2.813627   2.177340   1.097612
    29  H    7.778907   6.533292   5.321224   4.129494   3.054396
    30  H    9.586568   8.165697   7.118763   5.657723   4.765388
    31  H   10.723924   9.233525   8.406682   6.890688   6.296776
    32  H   12.877141  11.381849  10.632433   9.127979   8.580258
    33  H   13.367539  11.907679  11.250131   9.808507   9.369569
    34  H   12.625537  11.121021  10.596022   9.116413   8.862699
    35  H   12.045293  10.672641  10.121785   8.820822   8.551712
    36  H   10.137101   8.887880   8.384753   7.285577   7.149555
    37  H    7.891784   6.523810   6.001354   4.780936   4.798912
    38  H    8.481299   7.216640   6.388397   5.244075   4.785556
                    6          7          8          9         10
     6  C    0.000000
     7  C    1.369316   0.000000
     8  C    2.268339   1.435312   0.000000
     9  C    2.274695   2.271654   1.378805   0.000000
    10  C    3.615182   3.711302   2.619559   1.446187   0.000000
    11  C    4.712498   4.487893   3.145494   2.440434   1.359197
    12  N    5.999790   5.866361   4.533656   3.742618   2.425388
    13  C    7.178512   6.853415   5.449008   4.912622   3.742935
    14  C    6.361454   6.514033   5.325290   4.255897   2.810786
    15  C    5.670345   6.086199   5.109204   3.841008   2.503814
    16  C    4.177627   4.703240   3.903137   2.546558   1.527969
    17  O    1.403650   2.249599   2.255300   1.408443   2.420451
    18  H    7.297007   8.389514   9.353694   8.954415   9.712161
    19  H    6.651853   7.848269   8.851341   8.405460   9.185331
    20  H    6.662025   7.659763   8.809224   8.617266   9.583089
    21  H    5.246830   6.185317   7.127796   6.876100   7.749649
    22  H    5.233378   6.415133   7.178935   6.610162   7.255227
    23  H    4.179423   5.417407   6.426103   6.026585   6.925298
    24  H    4.194621   5.141198   6.367167   6.315837   7.440688
    25  H    2.789584   3.620977   4.568924   4.473555   5.540346
    26  H    2.768006   4.004724   4.652437   4.057067   4.828420
    27  H    2.129432   3.331378   4.291031   4.013318   5.076241
    28  H    2.106957   2.798949   4.139648   4.379258   5.705893
    29  H    2.183505   1.079661   2.249844   3.313962   4.734884
    30  H    3.307864   2.247039   1.079120   2.196835   3.060846
    31  H    4.845227   4.313538   2.888102   2.686232   2.135956
    32  H    7.147029   6.625454   5.191309   4.923076   3.981167
    33  H    8.035756   7.768092   6.368490   5.762240   4.506540
    34  H    7.525674   7.208940   5.842489   5.322887   4.201191
    35  H    7.443236   7.587108   6.372044   5.335040   3.891121
    36  H    6.366892   6.934036   6.064113   4.746853   3.502747
    37  H    4.065830   4.785378   4.198944   2.845767   2.169917
    38  H    4.014698   4.686513   4.086783   2.781674   2.164921
                   11         12         13         14         15
    11  C    0.000000
    12  N    1.391734   0.000000
    13  C    2.477489   1.459640   0.000000
    14  C    2.398777   1.403957   2.486653   0.000000
    15  C    2.786680   2.410383   3.728315   1.344249   0.000000
    16  C    2.518781   2.930722   4.377954   2.515482   1.513502
    17  O    3.675856   4.844629   6.129342   5.046713   4.283231
    18  H   10.931651  11.856842  13.098741  11.632256  10.529471
    19  H   10.487123  11.422565  12.754195  11.139775   9.960560
    20  H   10.817789  11.881471  13.132758  11.796229  10.724467
    21  H    8.880610   9.912436  11.068698   9.906416   8.953248
    22  H    8.477274   9.361179  10.619805   9.120365   8.028994
    23  H    8.242389   9.272025  10.618749   9.116993   7.994507
    24  H    8.655535   9.827352  11.066589   9.902749   8.922013
    25  H    6.626873   7.799740   8.929103   8.011773   7.199949
    26  H    6.079682   7.089628   8.370053   7.019651   6.014579
    27  H    6.348214   7.481916   8.806067   7.521212   6.546057
    28  H    6.817852   8.103606   9.281566   8.406505   7.607614
    29  H    5.392603   6.781855   7.665532   7.517555   7.145624
    30  H    3.119607   4.452393   5.112960   5.471841   5.514468
    31  H    1.084422   2.093080   2.612695   3.352258   3.867764
    32  H    2.628433   2.098826   1.094071   3.351958   4.495900
    33  H    3.336684   2.098125   1.094088   2.639908   3.976211
    34  H    3.002775   2.139125   1.100191   2.999855   4.174830
    35  H    3.350345   2.104796   2.625551   1.084137   2.132537
    36  H    3.871016   3.381367   4.579008   2.095520   1.085187
    37  H    3.227073   3.685246   5.059541   3.232697   2.169179
    38  H    3.266106   3.734979   5.192142   3.262111   2.164076
                   16         17         18         19         20
    16  C    0.000000
    17  O    2.781567   0.000000
    18  H    9.313197   7.675349   0.000000
    19  H    8.706928   7.032411   1.771967   0.000000
    20  H    9.371560   7.325225   1.771995   1.771245   0.000000
    21  H    7.642217   5.730699   2.511719   3.087227   2.533176
    22  H    6.816649   5.353530   2.512310   2.532718   3.087439
    23  H    6.612610   4.636924   3.797328   2.608783   3.149909
    24  H    7.460332   5.066623   3.797709   3.151534   2.609427
    25  H    5.770770   3.448999   4.922205   4.799331   4.464258
    26  H    4.625199   2.781678   4.921755   4.460782   4.799434
    27  H    5.074529   2.732392   6.205781   5.147287   5.438699
    28  H    6.095533   3.364894   6.250369   5.494890   5.199953
    29  H    5.778603   3.293487   8.640156   8.136287   7.736234
    30  H    4.515833   3.301147  10.346613   9.893731   9.780747
    31  H    3.517353   4.068295  11.359151  10.968241  11.139309
    32  H    4.905865   6.254550  13.456530  13.090643  13.359735
    33  H    4.905095   6.925399  13.893154  13.489924  13.965312
    34  H    4.807635   6.494807  13.076784  12.878661  13.206750
    35  H    3.514221   6.120601  12.523179  12.045380  12.762791
    36  H    2.237749   4.967620  10.615028  10.002953  10.924704
    37  H    1.103227   2.700764   8.410867   7.921401   8.603948
    38  H    1.102253   2.692031   9.154018   8.351529   9.110836
                   21         22         23         24         25
    21  H    0.000000
    22  H    1.759105   0.000000
    23  H    3.072517   2.518232   0.000000
    24  H    2.517998   3.072119   1.761258   0.000000
    25  H    2.581584   3.121794   3.077916   2.525884   0.000000
    26  H    3.125877   2.579714   2.523043   3.078486   1.761473
    27  H    4.743607   4.408008   2.538552   3.084146   3.070702
    28  H    4.432911   4.772407   3.138095   2.590579   2.512996
    29  H    6.416724   6.890000   5.775871   5.199892   3.933048
    30  H    8.059443   8.194789   7.479280   7.328871   5.493711
    31  H    9.175819   8.968528   8.676198   8.888882   6.805055
    32  H   11.328033  11.011390  10.854264  11.174082   9.053052
    33  H   11.949061  11.393596  11.363200  11.919150   9.851888
    34  H   11.018552  10.625819  10.867010  11.250140   8.984933
    35  H   10.863893  10.017299  10.093221  10.933467   9.045974
    36  H    9.256759   8.156443   8.194424   9.290227   7.727499
    37  H    6.784419   5.901249   6.007215   6.876381   5.127327
    38  H    7.636180   6.718436   6.173698   7.161392   5.802638
                   26         27         28         29         30
    26  H    0.000000
    27  H    2.521566   0.000000
    28  H    3.074011   1.762610   0.000000
    29  H    4.668872   3.809053   2.805041   0.000000
    30  H    5.694510   5.320419   5.042906   2.710520   0.000000
    31  H    6.527073   6.688300   6.899790   5.068422   2.510965
    32  H    8.657482   8.890618   9.216136   7.329347   4.659877
    33  H    9.173748   9.542539  10.139931   8.599718   6.049043
    34  H    8.503010   9.219878   9.608803   8.004229   5.515743
    35  H    8.012352   8.554027   9.481345   8.580745   6.450158
    36  H    6.370216   6.958372   8.182965   8.006538   6.538823
    37  H    3.887532   4.837218   5.844079   5.855367   4.935646
    38  H    4.529214   4.531461   5.768768   5.741218   4.796881
                   31         32         33         34         35
    31  H    0.000000
    32  H    2.334760   0.000000
    33  H    3.584308   1.770086   0.000000
    34  H    3.069520   1.779355   1.779453   0.000000
    35  H    4.191980   3.603366   2.353890   3.067552   0.000000
    36  H    4.950998   5.422632   4.646048   4.981239   2.449974
    37  H    4.148409   5.644442   5.651551   5.287695   4.160605
    38  H    4.189839   5.633040   5.628966   5.751215   4.182695
                   36         37         38
    36  H    0.000000
    37  H    2.623770   0.000000
    38  H    2.574650   1.742216   0.000000
 Stoichiometry    C15H21NO
 Framework group  C1[X(C15H21NO)]
 Deg. of freedom   108
 Full point group                 C1      NOp   1
 Largest Abelian subgroup         C1      NOp   1
 Largest concise Abelian subgroup C1      NOp   1
                         Standard orientation:                         
 ---------------------------------------------------------------------
 Center     Atomic      Atomic             Coordinates (Angstroms)
 Number     Number       Type             X           Y           Z
 ---------------------------------------------------------------------
      1          6           0        6.761372   -1.571019    0.421747
      2          6           0        5.319659   -1.211554    0.815243
      3          6           0        4.659833   -0.213514   -0.154112
      4          6           0        3.215719    0.146724    0.233943
      5          6           0        2.563775    1.148767   -0.750114
      6          6           0        1.154173    1.494074   -0.416075
      7          6           0        0.506879    2.636729   -0.028292
      8          6           0       -0.881141    2.318848    0.151908
      9          6           0       -1.041603    0.977329   -0.123196
     10          6           0       -2.142779    0.039851   -0.124731
     11          6           0       -3.365011    0.399050    0.349126
     12          7           0       -4.479772   -0.433607    0.318897
     13          6           0       -5.704800   -0.062301    1.020315
     14          6           0       -4.334430   -1.716759   -0.232003
     15          6           0       -3.162894   -2.170524   -0.710130
     16          6           0       -1.885037   -1.360047   -0.680199
     17          8           0        0.215441    0.452548   -0.481187
     18          1           0        7.204078   -2.281766    1.129236
     19          1           0        6.795722   -2.026506   -0.576037
     20          1           0        7.398900   -0.678014    0.401231
     21          1           0        5.310318   -0.788210    1.830448
     22          1           0        4.711163   -2.126747    0.858964
     23          1           0        4.669563   -0.636692   -1.170691
     24          1           0        5.267871    0.703791   -0.197468
     25          1           0        3.198568    0.576642    1.245414
     26          1           0        2.602022   -0.763172    0.269803
     27          1           0        2.611887    0.726022   -1.765018
     28          1           0        3.147561    2.078060   -0.769106
     29          1           0        0.963732    3.605746    0.105719
     30          1           0       -1.659836    3.009958    0.435636
     31          1           0       -3.541990    1.382136    0.771252
     32          1           0       -5.839558    1.022643    0.978736
     33          1           0       -6.565012   -0.528562    0.530760
     34          1           0       -5.697569   -0.370574    2.076410
     35          1           0       -5.242115   -2.309075   -0.256967
     36          1           0       -3.126002   -3.162025   -1.149669
     37          1           0       -1.108698   -1.867358   -0.082668
     38          1           0       -1.448017   -1.285344   -1.689354
 ---------------------------------------------------------------------
 Rotational constants (GHZ):           0.9814125           0.1591864           0.1427886
 Standard basis: 6-31G (6D, 7F)
 There are   195 symmetry adapted cartesian basis functions of A   symmetry.
 There are   195 symmetry adapted basis functions of A   symmetry.
   195 basis functions,   458 primitive gaussians,   195 cartesian basis functions
    63 alpha electrons       63 beta electrons
       nuclear repulsion energy      1123.7144947730 Hartrees.
 NAtoms=   38 NActive=   38 NUniq=   38 SFac= 1.00D+00 NAtFMM=   60 NAOKFM=F Big=F
 Integral buffers will be    131072 words long.
 Regular integral format.
 Two-electron integral symmetry is turned on.
 One-electron integrals computed using PRISM.
 NBasis=   195 RedAO= T EigKep=  7.95D-04  NBF=   195
 NBsUse=   195 1.00D-06 EigRej= -1.00D+00 NBFU=   195
 ExpMin= 1.61D-01 ExpMax= 5.48D+03 ExpMxC= 8.25D+02 IAcc=3 IRadAn=         5 AccDes= 0.00D+00
 Harris functional with IExCor=  402 and IRadAn=       5 diagonalized for initial guess.
 HarFok:  IExCor=  402 AccDes= 0.00D+00 IRadAn=         5 IDoV= 1 UseB2=F ITyADJ=14
 ICtDFT=  3500011 ScaDFX=  1.000000  1.000000  1.000000  1.000000
 FoFCou: FMM=F IPFlag=           0 FMFlag=      100000 FMFlg1=           0
         NFxFlg=           0 DoJE=T BraDBF=F KetDBF=T FulRan=T
         wScrn=  0.000000 ICntrl=       500 IOpCl=  0 I1Cent=   200000004 NGrid=           0
         NMat0=    1 NMatS0=      1 NMatT0=    0 NMatD0=    1 NMtDS0=    0 NMtDT0=    0
 Petite list used in FoFCou.
 Requested convergence on RMS density matrix=1.00D-08 within 128 cycles.
 Requested convergence on MAX density matrix=1.00D-06.
 Requested convergence on             energy=1.00D-06.
 No special actions if energy rises.
 Integral accuracy reduced to 1.0D-05 until final iterations.
 EnCoef did     2 forward-backward iterations
 Initial convergence to 1.0D-05 achieved.  Increase integral accuracy.
 SCF Done:  E(RB3LYP) =  -713.992551477     A.U. after   15 cycles
            NFock= 15  Conv=0.65D-08     -V/T= 2.0058
 DoSCS=F DFT=T ScalE2(SS,OS)=  1.000000  1.000000
 ExpMin= 1.61D-01 ExpMax= 5.48D+03 ExpMxC= 8.25D+02 IAcc=3 IRadAn=         5 AccDes= 0.00D+00
 HarFok:  IExCor=  205 AccDes= 0.00D+00 IRadAn=         5 IDoV=-2 UseB2=F ITyADJ=14
 ICtDFT= 12500011 ScaDFX=  1.000000  1.000000  1.000000  1.000000
 Range of M.O.s used for correlation:    18   195
 NBasis=   195 NAE=    63 NBE=    63 NFC=    17 NFV=     0
 NROrb=    178 NOA=    46 NOB=    46 NVA=   132 NVB=   132
 Keep R1, R2, and R3 ints in memory in canonical form, NReq=626859763.
 Orbital symmetries:
       Occupied  (A) (A) (A) (A) (A) (A) (A) (A) (A) (A) (A) (A)
                 (A) (A) (A) (A) (A) (A) (A) (A) (A) (A) (A) (A)
                 (A) (A) (A) (A) (A) (A) (A) (A) (A) (A) (A) (A)
                 (A) (A) (A) (A) (A) (A) (A) (A) (A) (A) (A) (A)
                 (A) (A) (A) (A) (A) (A) (A) (A) (A) (A) (A) (A)
                 (A) (A) (A)
       Virtual   (A) (A) (A) (A) (A) (A) (A) (A) (A) (A) (A) (A)
                 (A) (A) (A) (A) (A) (A) (A) (A) (A) (A) (A) (A)
                 (A) (A) (A) (A) (A) (A) (A) (A) (A) (A) (A) (A)
                 (A) (A) (A) (A) (A) (A) (A) (A) (A) (A) (A) (A)
                 (A) (A) (A) (A) (A) (A) (A) (A) (A) (A) (A) (A)
                 (A) (A) (A) (A) (A) (A) (A) (A) (A) (A) (A) (A)
                 (A) (A) (A) (A) (A) (A) (A) (A) (A) (A) (A) (A)
                 (A) (A) (A) (A) (A) (A) (A) (A) (A) (A) (A) (A)
                 (A) (A) (A) (A) (A) (A) (A) (A) (A) (A) (A) (A)
                 (A) (A) (A) (A) (A) (A) (A) (A) (A) (A) (A) (A)
                 (A) (A) (A) (A) (A) (A) (A) (A) (A) (A) (A) (A)
    24 initial guesses have been made.
 Convergence on wavefunction:    0.001000000000000
 Iteration     1 Dimension    24 NMult     0 NNew     24
 CISAX will form    24 AO SS matrices at one time.
 New state      1 was old state      2
 New state      2 was old state      4
 New state      3 was old state      1
 New state      4 was old state      8
 New state      5 was old state      6
 New state      6 was old state      5
 New state      7 was old state     12
 New state      8 was old state     20
 New state      9 was old state     10
 New state     10 was old state      7
 New state     11 was old state      9
 New state     12 was old state     16
 Vector   5 SDiff=5.05D+00 TDiff=5.31D+00 assumed to be singlet.
 Vector  11 SDiff=5.27D+00 TDiff=4.80D+00 assumed to be triplet.
 Iteration     2 Dimension    36 NMult    24 NNew     12
 New state      5 was old state      6
 New state      6 was old state     10
 Iteration     3 Dimension    48 NMult    36 NNew     12
 Iteration     4 Dimension    60 NMult    48 NNew     12
 Iteration     5 Dimension    72 NMult    60 NNew     12
 Iteration     6 Dimension    76 NMult    72 NNew      4
 ***********************************************************************
 Excited states from <AA,BB:AA,BB> singles matrix:
 ***********************************************************************
 
 Ground to excited state transition densities written to RWF  633
 Ground to excited state transition electric dipole moments (Au):
       state          X           Y           Z        Dip. S.      Osc.
         1         0.0000     -0.0000     -0.0000      0.0000      0.0000
         2        -0.0000     -0.0000     -0.0000      0.0000      0.0000
         3        -1.7261     -1.0424      0.0182      4.0663      0.3487
         4        -0.0000     -0.0000      0.0000      0.0000      0.0000
         5        -0.1332     -0.2594     -0.0847      0.0922      0.0108
         6        -1.6748     -0.0003      0.3078      2.8996      0.3712
 Ground to excited state transition velocity dipole moments (Au):
       state          X           Y           Z        Dip. S.      Osc.
         1        -0.0000      0.0000      0.0000      0.0000      0.0000
         2        -0.0000      0.0000      0.0000      0.0000      0.0000
         3         0.1889      0.1195     -0.0012      0.0500      0.2591
         4         0.0000      0.0000     -0.0000      0.0000      0.0000
         5         0.0247      0.0416      0.0110      0.0025      0.0094
         6         0.2687     -0.0068     -0.0504      0.0748      0.2596
 Ground to excited state transition magnetic dipole moments (Au):
       state          X           Y           Z
         1        -0.0000      0.0000     -0.0000
         2        -0.0000      0.0000     -0.0000
         3        -0.1952      0.2813     -1.7120
         4         0.0000      0.0000      0.0000
         5         0.0142      0.0699     -0.2534
         6         0.0806     -0.5623     -0.0149
 Ground to excited state transition velocity quadrupole moments (Au):
       state          XX          YY          ZZ          XY          XZ          YZ
         1         0.0000     -0.0000      0.0000      0.0000     -0.0000     -0.0000
         2         0.0000     -0.0000     -0.0000     -0.0000     -0.0000     -0.0000
         3        -0.8373      0.0164     -0.0489     -0.3618      0.0128     -0.1272
         4        -0.0000      0.0000      0.0000      0.0000     -0.0000      0.0000
         5         0.1670      0.0648      0.0147     -0.0892     -0.1188     -0.0270
         6        -0.6088      0.3543      0.0696      0.1784      0.2299      0.0248
 <0|del|b> * <b|rxdel|0> + <0|del|b> * <b|delr+rdel|0>
 Rotatory Strengths (R) in cgs (10**-40 erg-esu-cm/Gauss)
       state          XX          YY          ZZ    R(velocity)    E-M Angle
         1         0.0000     -0.0000     -0.0000      0.0000       90.00
         2         0.0000     -0.0000      0.0000      0.0000       90.00
         3        94.9717   -163.0997     61.3376     -2.2635       90.18
         4        -0.0000      0.0000     -0.0000      0.0000       90.00
         5         8.1994     -4.2938     -2.0509      0.6183       87.98
         6        -5.2928     70.0780     31.7281     32.1711       80.29
 1/2[<0|r|b>*<b|rxdel|0> + (<0|rxdel|b>*<b|r|0>)*]
 Rotatory Strengths (R) in cgs (10**-40 erg-esu-cm/Gauss)
       state          XX          YY          ZZ     R(length)
         1         0.0000      0.0000     -0.0000      0.0000
         2        -0.0000      0.0000     -0.0000      0.0000
         3      -238.2754    207.3349     22.0884     -2.9507
         4         0.0000      0.0000     -0.0000      0.0000
         5         1.3392     12.8223    -15.1670     -0.3352
         6        95.4296     -0.1014      3.2429     32.8570
  1/2[<0|del|b>*<b|r|0> + (<0|r|b>*<b|del|0>)*] (Au)
       state          X           Y           Z        Dip. S.   Osc.(frdel)
         1        -0.0000     -0.0000     -0.0000      0.0000      0.0000
         2         0.0000     -0.0000     -0.0000      0.0000      0.0000
         3        -0.3261     -0.1246     -0.0000      0.4507      0.3005
         4        -0.0000     -0.0000     -0.0000      0.0000      0.0000
         5        -0.0033     -0.0108     -0.0009      0.0150      0.0100
         6        -0.4500      0.0000     -0.0155      0.4655      0.3103

 Excitation energies and oscillator strengths:
 
 Excited State   1:      Triplet-A      2.1149 eV  586.24 nm  f=0.0000  <S**2>=2.000
      62 -> 65         0.10238
      63 -> 64         0.69309
      63 <- 64         0.10159
 This state for optimization and/or second-order correction.
 Total Energy, E(TD-HF/TD-DFT) =  -713.914830188    
 Copying the excited state density for this state as the 1-particle RhoCI density.
 
 Excited State   2:      Triplet-A      3.3764 eV  367.21 nm  f=0.0000  <S**2>=2.000
      60 -> 65         0.10775
      62 -> 64         0.50789
      62 -> 66         0.13058
      63 -> 65         0.42020
      63 -> 66        -0.11695
 
 Excited State   3:      Singlet-A      3.4997 eV  354.27 nm  f=0.3487  <S**2>=0.000
      63 -> 64         0.69842
 
 Excited State   4:      Triplet-A      4.1483 eV  298.88 nm  f=0.0000  <S**2>=2.000
      60 -> 64         0.25057
      61 -> 64        -0.18394
      62 -> 64         0.13290
      62 -> 65         0.34084
      63 -> 66         0.48450
 
 Excited State   5:      Singlet-A      4.7668 eV  260.10 nm  f=0.0108  <S**2>=0.000
      62 -> 64         0.51136
      63 -> 65        -0.48102
 
 Excited State   6:      Singlet-A      5.2250 eV  237.29 nm  f=0.3712  <S**2>=0.000
      62 -> 64         0.46135
      63 -> 65         0.49734
      63 -> 66         0.13810
 SavETr:  write IOETrn=   770 NScale= 10 NData=  16 NLR=1 NState=    6 LETran=     118.

 **********************************************************************

            Population analysis using the SCF Density.

 **********************************************************************

 Orbital symmetries:
       Occupied  (A) (A) (A) (A) (A) (A) (A) (A) (A) (A) (A) (A)
                 (A) (A) (A) (A) (A) (A) (A) (A) (A) (A) (A) (A)
                 (A) (A) (A) (A) (A) (A) (A) (A) (A) (A) (A) (A)
                 (A) (A) (A) (A) (A) (A) (A) (A) (A) (A) (A) (A)
                 (A) (A) (A) (A) (A) (A) (A) (A) (A) (A) (A) (A)
                 (A) (A) (A)
       Virtual   (A) (A) (A) (A) (A) (A) (A) (A) (A) (A) (A) (A)
                 (A) (A) (A) (A) (A) (A) (A) (A) (A) (A) (A) (A)
                 (A) (A) (A) (A) (A) (A) (A) (A) (A) (A) (A) (A)
                 (A) (A) (A) (A) (A) (A) (A) (A) (A) (A) (A) (A)
                 (A) (A) (A) (A) (A) (A) (A) (A) (A) (A) (A) (A)
                 (A) (A) (A) (A) (A) (A) (A) (A) (A) (A) (A) (A)
                 (A) (A) (A) (A) (A) (A) (A) (A) (A) (A) (A) (A)
                 (A) (A) (A) (A) (A) (A) (A) (A) (A) (A) (A) (A)
                 (A) (A) (A) (A) (A) (A) (A) (A) (A) (A) (A) (A)
                 (A) (A) (A) (A) (A) (A) (A) (A) (A) (A) (A) (A)
                 (A) (A) (A) (A) (A) (A) (A) (A) (A) (A) (A) (A)
 The electronic state is 1-A.
 Alpha  occ. eigenvalues --  -19.18747 -14.36282 -10.22831 -10.22463 -10.22316
 Alpha  occ. eigenvalues --  -10.21378 -10.20998 -10.18391 -10.18225 -10.17673
 Alpha  occ. eigenvalues --  -10.17170 -10.17123 -10.17104 -10.17040 -10.16864
 Alpha  occ. eigenvalues --  -10.16796 -10.16412  -1.08324  -0.96073  -0.81505
 Alpha  occ. eigenvalues --   -0.80207  -0.78576  -0.77495  -0.75877  -0.72366
 Alpha  occ. eigenvalues --   -0.71029  -0.67337  -0.63458  -0.62592  -0.59989
 Alpha  occ. eigenvalues --   -0.57843  -0.57335  -0.53693  -0.52601  -0.49830
 Alpha  occ. eigenvalues --   -0.47705  -0.47362  -0.46077  -0.45780  -0.44078
 Alpha  occ. eigenvalues --   -0.43202  -0.43079  -0.42386  -0.41448  -0.40889
 Alpha  occ. eigenvalues --   -0.40420  -0.40169  -0.39305  -0.38560  -0.37258
 Alpha  occ. eigenvalues --   -0.36270  -0.35284  -0.34613  -0.33930  -0.33359
 Alpha  occ. eigenvalues --   -0.32971  -0.32410  -0.31778  -0.31569  -0.27759
 Alpha  occ. eigenvalues --   -0.26015  -0.21230  -0.15565
 Alpha virt. eigenvalues --   -0.01261   0.04748   0.07090   0.08632   0.09436
 Alpha virt. eigenvalues --    0.10631   0.11666   0.11942   0.12284   0.12544
 Alpha virt. eigenvalues --    0.13384   0.13978   0.14069   0.15473   0.16064
 Alpha virt. eigenvalues --    0.16349   0.16687   0.17375   0.17654   0.17984
 Alpha virt. eigenvalues --    0.18935   0.19216   0.19520   0.19992   0.20639
 Alpha virt. eigenvalues --    0.21191   0.21564   0.22471   0.23038   0.24690
 Alpha virt. eigenvalues --    0.25609   0.26014   0.27972   0.29023   0.29982
 Alpha virt. eigenvalues --    0.31169   0.35211   0.35897   0.36848   0.42596
 Alpha virt. eigenvalues --    0.43247   0.45870   0.49835   0.50725   0.52271
 Alpha virt. eigenvalues --    0.53421   0.54366   0.54806   0.55920   0.57590
 Alpha virt. eigenvalues --    0.57680   0.57924   0.58287   0.58707   0.59509
 Alpha virt. eigenvalues --    0.59990   0.61228   0.61725   0.62373   0.62940
 Alpha virt. eigenvalues --    0.64401   0.64868   0.65337   0.66808   0.67120
 Alpha virt. eigenvalues --    0.67731   0.68817   0.69881   0.70260   0.70929
 Alpha virt. eigenvalues --    0.72224   0.73767   0.74951   0.76745   0.77497
 Alpha virt. eigenvalues --    0.80076   0.80963   0.81938   0.83926   0.84574
 Alpha virt. eigenvalues --    0.85165   0.86406   0.86893   0.87749   0.88469
 Alpha virt. eigenvalues --    0.89373   0.90462   0.91503   0.93136   0.93759
 Alpha virt. eigenvalues --    0.94450   0.94641   0.95277   0.95437   0.95901
 Alpha virt. eigenvalues --    0.96863   0.97733   0.97842   0.98571   0.98729
 Alpha virt. eigenvalues --    0.99941   1.00552   1.01393   1.01703   1.04674
 Alpha virt. eigenvalues --    1.06261   1.07506   1.09418   1.11759   1.11867
 Alpha virt. eigenvalues --    1.14323   1.16475   1.18930   1.21591   1.25956
 Alpha virt. eigenvalues --    1.26618   1.30211   1.30340   1.36308   1.39224
 Alpha virt. eigenvalues --    1.42094   1.45160   1.47712   1.51340   1.54381
 Alpha virt. eigenvalues --    1.56417   1.59340   1.66631   1.80686   1.89947
 Alpha virt. eigenvalues --    1.95325   2.05385
          Condensed to atoms (all electrons):
               1          2          3          4          5          6
     1  C    5.086975   0.325752  -0.044956   0.004109  -0.000149   0.000002
     2  C    0.325752   5.050816   0.333440  -0.036098   0.003749  -0.000193
     3  C   -0.044956   0.333440   5.096854   0.305680  -0.033991   0.005211
     4  C    0.004109  -0.036098   0.305680   5.134638   0.297886  -0.043057
     5  C   -0.000149   0.003749  -0.033991   0.297886   5.185255   0.310406
     6  C    0.000002  -0.000193   0.005211  -0.043057   0.310406   4.853872
     7  C    0.000000   0.000000  -0.000041  -0.001053  -0.044208   0.565229
     8  C   -0.000000   0.000000   0.000000  -0.000181   0.004837  -0.062151
     9  C   -0.000000  -0.000000  -0.000002   0.000204   0.004759  -0.066624
    10  C    0.000000  -0.000000   0.000000   0.000003   0.000005   0.007304
    11  C    0.000000  -0.000000   0.000000  -0.000000   0.000003  -0.000104
    12  N   -0.000000   0.000000  -0.000000   0.000000  -0.000000   0.000001
    13  C    0.000000   0.000000  -0.000000  -0.000000   0.000000  -0.000000
    14  C   -0.000000   0.000000   0.000000   0.000000   0.000000   0.000000
    15  C    0.000000  -0.000000  -0.000000   0.000000  -0.000000  -0.000004
    16  C    0.000000   0.000000   0.000000  -0.000008  -0.000030   0.000422
    17  O    0.000000   0.000000   0.000059   0.000251  -0.060162   0.216683
    18  H    0.368291  -0.029423   0.004344  -0.000159   0.000001  -0.000000
    19  H    0.376383  -0.037764  -0.004452   0.000049   0.000001   0.000000
    20  H    0.376210  -0.037847  -0.004480   0.000051   0.000001   0.000000
    21  H   -0.041300   0.379262  -0.043838  -0.003053   0.000033  -0.000001
    22  H   -0.041038   0.379423  -0.043849  -0.002709   0.000034   0.000005
    23  H   -0.002450  -0.043798   0.376047  -0.044111  -0.003031   0.000053
    24  H   -0.002486  -0.044331   0.374557  -0.043485  -0.002742   0.000107
    25  H    0.000056  -0.002964  -0.042023   0.372539  -0.043083   0.001354
    26  H    0.000045  -0.002839  -0.041216   0.382016  -0.042788  -0.005369
    27  H    0.000002   0.000023  -0.002931  -0.048383   0.361461  -0.035945
    28  H    0.000001   0.000012  -0.002355  -0.039532   0.373546  -0.039818
    29  H    0.000000  -0.000000   0.000002   0.000054  -0.000764  -0.024854
    30  H   -0.000000   0.000000  -0.000000   0.000001  -0.000144   0.002649
    31  H   -0.000000   0.000000  -0.000000   0.000000   0.000000   0.000009
    32  H    0.000000   0.000000  -0.000000   0.000000   0.000000  -0.000000
    33  H    0.000000   0.000000  -0.000000   0.000000  -0.000000   0.000000
    34  H    0.000000  -0.000000   0.000000  -0.000000  -0.000000   0.000000
    35  H   -0.000000   0.000000  -0.000000   0.000000  -0.000000  -0.000000
    36  H   -0.000000   0.000000  -0.000000  -0.000000   0.000000   0.000000
    37  H   -0.000000   0.000000  -0.000001   0.000006  -0.000005  -0.000167
    38  H    0.000000  -0.000000   0.000000  -0.000004  -0.000017  -0.000170
               7          8          9         10         11         12
     1  C    0.000000  -0.000000  -0.000000   0.000000   0.000000  -0.000000
     2  C    0.000000   0.000000  -0.000000  -0.000000  -0.000000   0.000000
     3  C   -0.000041   0.000000  -0.000002   0.000000   0.000000  -0.000000
     4  C   -0.001053  -0.000181   0.000204   0.000003  -0.000000   0.000000
     5  C   -0.044208   0.004837   0.004759   0.000005   0.000003  -0.000000
     6  C    0.565229  -0.062151  -0.066624   0.007304  -0.000104   0.000001
     7  C    5.047272   0.416316  -0.033670   0.007803   0.000400  -0.000003
     8  C    0.416316   5.215556   0.497257  -0.102142  -0.018512   0.000448
     9  C   -0.033670   0.497257   4.944907   0.291853  -0.046952   0.005911
    10  C    0.007803  -0.102142   0.291853   5.039468   0.598717  -0.012540
    11  C    0.000400  -0.018512  -0.046952   0.598717   4.955831   0.208751
    12  N   -0.000003   0.000448   0.005911  -0.012540   0.208751   7.226607
    13  C    0.000000   0.000000  -0.000071   0.003605  -0.033956   0.258887
    14  C   -0.000000   0.000003   0.001185  -0.004616  -0.058516   0.258781
    15  C    0.000005  -0.000077   0.006357  -0.010383  -0.015995  -0.050543
    16  C   -0.000355   0.008466  -0.013802   0.293669  -0.075773  -0.029143
    17  O   -0.081929  -0.140235   0.261478  -0.045628   0.002605  -0.000030
    18  H   -0.000000   0.000000  -0.000000  -0.000000  -0.000000   0.000000
    19  H   -0.000000   0.000000   0.000000  -0.000000  -0.000000   0.000000
    20  H    0.000000  -0.000000   0.000000   0.000000   0.000000  -0.000000
    21  H   -0.000000   0.000000   0.000000  -0.000000  -0.000000   0.000000
    22  H    0.000000  -0.000000   0.000000   0.000000   0.000000  -0.000000
    23  H   -0.000002   0.000000   0.000000  -0.000000  -0.000000  -0.000000
    24  H    0.000004  -0.000000   0.000000   0.000000   0.000000  -0.000000
    25  H    0.001498  -0.000043  -0.000076  -0.000002   0.000000  -0.000000
    26  H    0.000016   0.000080  -0.000028  -0.000057  -0.000000   0.000000
    27  H    0.002263  -0.000206   0.000364  -0.000010  -0.000000  -0.000000
    28  H   -0.005336   0.000427  -0.000249   0.000000  -0.000000   0.000000
    29  H    0.341036  -0.023392   0.003155  -0.000129   0.000003  -0.000000
    30  H   -0.023414   0.340504  -0.023483  -0.001955   0.001001  -0.000006
    31  H   -0.000001   0.003262  -0.008600  -0.034422   0.368668  -0.059600
    32  H    0.000000   0.000001   0.000008   0.000441  -0.001129  -0.043206
    33  H    0.000000  -0.000000   0.000002  -0.000186   0.002263  -0.043525
    34  H   -0.000000  -0.000002  -0.000002   0.000121   0.001390  -0.056493
    35  H    0.000000  -0.000000  -0.000013  -0.000403   0.004689  -0.059773
    36  H   -0.000000   0.000000  -0.000239   0.002888   0.001131   0.004495
    37  H    0.000032  -0.000070  -0.005674  -0.039249  -0.000191   0.001522
    38  H    0.000002   0.000061  -0.003598  -0.043749   0.000987   0.000760
              13         14         15         16         17         18
     1  C    0.000000  -0.000000   0.000000   0.000000   0.000000   0.368291
     2  C    0.000000   0.000000  -0.000000   0.000000   0.000000  -0.029423
     3  C   -0.000000   0.000000  -0.000000   0.000000   0.000059   0.004344
     4  C   -0.000000   0.000000   0.000000  -0.000008   0.000251  -0.000159
     5  C    0.000000   0.000000  -0.000000  -0.000030  -0.060162   0.000001
     6  C   -0.000000   0.000000  -0.000004   0.000422   0.216683  -0.000000
     7  C    0.000000  -0.000000   0.000005  -0.000355  -0.081929  -0.000000
     8  C    0.000000   0.000003  -0.000077   0.008466  -0.140235   0.000000
     9  C   -0.000071   0.001185   0.006357  -0.013802   0.261478  -0.000000
    10  C    0.003605  -0.004616  -0.010383   0.293669  -0.045628  -0.000000
    11  C   -0.033956  -0.058516  -0.015995  -0.075773   0.002605  -0.000000
    12  N    0.258887   0.258781  -0.050543  -0.029143  -0.000030   0.000000
    13  C    4.918458  -0.032638   0.003958   0.000106   0.000000   0.000000
    14  C   -0.032638   4.746750   0.661139  -0.042447  -0.000012   0.000000
    15  C    0.003958   0.661139   5.004662   0.306545   0.000442  -0.000000
    16  C    0.000106  -0.042447   0.306545   5.150319  -0.000321  -0.000000
    17  O    0.000000  -0.000012   0.000442  -0.000321   8.384787  -0.000000
    18  H    0.000000   0.000000  -0.000000  -0.000000  -0.000000   0.598522
    19  H    0.000000   0.000000  -0.000000  -0.000000   0.000000  -0.032969
    20  H    0.000000  -0.000000  -0.000000  -0.000000  -0.000000  -0.033062
    21  H    0.000000   0.000000  -0.000000  -0.000000   0.000000  -0.002665
    22  H   -0.000000   0.000000  -0.000000  -0.000000  -0.000001  -0.002669
    23  H   -0.000000   0.000000   0.000000   0.000000   0.000002  -0.000016
    24  H   -0.000000   0.000000   0.000000  -0.000000  -0.000001  -0.000019
    25  H   -0.000000  -0.000000   0.000000   0.000000  -0.000386   0.000001
    26  H    0.000000  -0.000000   0.000000   0.000024   0.005253   0.000002
    27  H    0.000000  -0.000000   0.000000  -0.000000  -0.001056   0.000000
    28  H   -0.000000   0.000000  -0.000000   0.000000   0.003001   0.000000
    29  H    0.000000   0.000000  -0.000000  -0.000001   0.004337  -0.000000
    30  H    0.000000   0.000002  -0.000001  -0.000003   0.003753   0.000000
    31  H   -0.003335   0.003882  -0.000381   0.005060   0.000100   0.000000
    32  H    0.377819   0.002350  -0.000216  -0.000002   0.000000   0.000000
    33  H    0.378591  -0.000934   0.000415  -0.000003  -0.000000   0.000000
    34  H    0.371419   0.001440   0.000177   0.000009  -0.000000   0.000000
    35  H   -0.003078   0.369159  -0.030269   0.005098  -0.000000   0.000000
    36  H   -0.000135  -0.033905   0.357749  -0.036024   0.000000   0.000000
    37  H    0.000020  -0.001100  -0.044297   0.367079   0.003650   0.000000
    38  H   -0.000003   0.000669  -0.044165   0.371401   0.002786  -0.000000
              19         20         21         22         23         24
     1  C    0.376383   0.376210  -0.041300  -0.041038  -0.002450  -0.002486
     2  C   -0.037764  -0.037847   0.379262   0.379423  -0.043798  -0.044331
     3  C   -0.004452  -0.004480  -0.043838  -0.043849   0.376047   0.374557
     4  C    0.000049   0.000051  -0.003053  -0.002709  -0.044111  -0.043485
     5  C    0.000001   0.000001   0.000033   0.000034  -0.003031  -0.002742
     6  C    0.000000   0.000000  -0.000001   0.000005   0.000053   0.000107
     7  C   -0.000000   0.000000  -0.000000   0.000000  -0.000002   0.000004
     8  C    0.000000  -0.000000   0.000000  -0.000000   0.000000  -0.000000
     9  C    0.000000   0.000000   0.000000   0.000000   0.000000   0.000000
    10  C   -0.000000   0.000000  -0.000000   0.000000  -0.000000   0.000000
    11  C   -0.000000   0.000000  -0.000000   0.000000  -0.000000   0.000000
    12  N    0.000000  -0.000000   0.000000  -0.000000  -0.000000  -0.000000
    13  C    0.000000   0.000000   0.000000  -0.000000  -0.000000  -0.000000
    14  C    0.000000  -0.000000   0.000000   0.000000   0.000000   0.000000
    15  C   -0.000000  -0.000000  -0.000000  -0.000000   0.000000   0.000000
    16  C   -0.000000  -0.000000  -0.000000  -0.000000   0.000000  -0.000000
    17  O    0.000000  -0.000000   0.000000  -0.000001   0.000002  -0.000001
    18  H   -0.032969  -0.033062  -0.002665  -0.002669  -0.000016  -0.000019
    19  H    0.597221  -0.034470   0.005220  -0.004713   0.004936  -0.000496
    20  H   -0.034470   0.598364  -0.004716   0.005206  -0.000494   0.004951
    21  H    0.005220  -0.004716   0.624164  -0.041299   0.005887  -0.005827
    22  H   -0.004713   0.005206  -0.041299   0.621874  -0.005788   0.005942
    23  H    0.004936  -0.000494   0.005887  -0.005788   0.629300  -0.042712
    24  H   -0.000496   0.004951  -0.005827   0.005942  -0.042712   0.634804
    25  H    0.000006   0.000001   0.004908  -0.000566   0.005738  -0.005514
    26  H    0.000001   0.000006  -0.000534   0.004891  -0.005387   0.005501
    27  H   -0.000001   0.000000   0.000006   0.000001   0.005628  -0.000529
    28  H    0.000000  -0.000001   0.000003   0.000006  -0.000516   0.004802
    29  H   -0.000000  -0.000000  -0.000000   0.000000   0.000000   0.000001
    30  H   -0.000000   0.000000  -0.000000   0.000000   0.000000   0.000000
    31  H    0.000000   0.000000  -0.000000   0.000000  -0.000000   0.000000
    32  H    0.000000   0.000000   0.000000  -0.000000  -0.000000  -0.000000
    33  H    0.000000   0.000000   0.000000  -0.000000  -0.000000  -0.000000
    34  H    0.000000   0.000000  -0.000000   0.000000   0.000000   0.000000
    35  H    0.000000  -0.000000   0.000000   0.000000   0.000000  -0.000000
    36  H    0.000000   0.000000  -0.000000   0.000000  -0.000000  -0.000000
    37  H    0.000000   0.000000   0.000000  -0.000000  -0.000000   0.000000
    38  H   -0.000000  -0.000000  -0.000000   0.000000   0.000000   0.000000
              25         26         27         28         29         30
     1  C    0.000056   0.000045   0.000002   0.000001   0.000000  -0.000000
     2  C   -0.002964  -0.002839   0.000023   0.000012  -0.000000   0.000000
     3  C   -0.042023  -0.041216  -0.002931  -0.002355   0.000002  -0.000000
     4  C    0.372539   0.382016  -0.048383  -0.039532   0.000054   0.000001
     5  C   -0.043083  -0.042788   0.361461   0.373546  -0.000764  -0.000144
     6  C    0.001354  -0.005369  -0.035945  -0.039818  -0.024854   0.002649
     7  C    0.001498   0.000016   0.002263  -0.005336   0.341036  -0.023414
     8  C   -0.000043   0.000080  -0.000206   0.000427  -0.023392   0.340504
     9  C   -0.000076  -0.000028   0.000364  -0.000249   0.003155  -0.023483
    10  C   -0.000002  -0.000057  -0.000010   0.000000  -0.000129  -0.001955
    11  C    0.000000  -0.000000  -0.000000  -0.000000   0.000003   0.001001
    12  N   -0.000000   0.000000  -0.000000   0.000000  -0.000000  -0.000006
    13  C   -0.000000   0.000000   0.000000  -0.000000   0.000000   0.000000
    14  C   -0.000000  -0.000000  -0.000000   0.000000   0.000000   0.000002
    15  C    0.000000   0.000000   0.000000  -0.000000  -0.000000  -0.000001
    16  C    0.000000   0.000024  -0.000000   0.000000  -0.000001  -0.000003
    17  O   -0.000386   0.005253  -0.001056   0.003001   0.004337   0.003753
    18  H    0.000001   0.000002   0.000000   0.000000  -0.000000   0.000000
    19  H    0.000006   0.000001  -0.000001   0.000000  -0.000000  -0.000000
    20  H    0.000001   0.000006   0.000000  -0.000001  -0.000000   0.000000
    21  H    0.004908  -0.000534   0.000006   0.000003  -0.000000  -0.000000
    22  H   -0.000566   0.004891   0.000001   0.000006   0.000000   0.000000
    23  H    0.005738  -0.005387   0.005628  -0.000516   0.000000   0.000000
    24  H   -0.005514   0.005501  -0.000529   0.004802   0.000001   0.000000
    25  H    0.620193  -0.038481   0.005992  -0.005725  -0.000026   0.000000
    26  H   -0.038481   0.593157  -0.004657   0.005318  -0.000008  -0.000000
    27  H    0.005992  -0.004657   0.607210  -0.036288  -0.000019   0.000002
    28  H   -0.005725   0.005318  -0.036288   0.604556   0.001204  -0.000002
    29  H   -0.000026  -0.000008  -0.000019   0.001204   0.566736  -0.000441
    30  H    0.000000  -0.000000   0.000002  -0.000002  -0.000441   0.569148
    31  H   -0.000000  -0.000000  -0.000000  -0.000000   0.000002   0.002910
    32  H   -0.000000   0.000000  -0.000000  -0.000000  -0.000000   0.000001
    33  H   -0.000000   0.000000  -0.000000   0.000000  -0.000000   0.000000
    34  H    0.000000  -0.000000   0.000000   0.000000   0.000000  -0.000000
    35  H   -0.000000  -0.000000  -0.000000  -0.000000  -0.000000  -0.000000
    36  H   -0.000000   0.000000  -0.000000  -0.000000   0.000000   0.000000
    37  H   -0.000002   0.000136  -0.000014  -0.000000  -0.000000  -0.000002
    38  H    0.000000  -0.000008   0.000042  -0.000000  -0.000000  -0.000007
              31         32         33         34         35         36
     1  C   -0.000000   0.000000   0.000000   0.000000  -0.000000  -0.000000
     2  C    0.000000   0.000000   0.000000  -0.000000   0.000000   0.000000
     3  C   -0.000000  -0.000000  -0.000000   0.000000  -0.000000  -0.000000
     4  C    0.000000   0.000000   0.000000  -0.000000   0.000000  -0.000000
     5  C    0.000000   0.000000  -0.000000  -0.000000  -0.000000   0.000000
     6  C    0.000009  -0.000000   0.000000   0.000000  -0.000000   0.000000
     7  C   -0.000001   0.000000   0.000000  -0.000000   0.000000  -0.000000
     8  C    0.003262   0.000001  -0.000000  -0.000002  -0.000000   0.000000
     9  C   -0.008600   0.000008   0.000002  -0.000002  -0.000013  -0.000239
    10  C   -0.034422   0.000441  -0.000186   0.000121  -0.000403   0.002888
    11  C    0.368668  -0.001129   0.002263   0.001390   0.004689   0.001131
    12  N   -0.059600  -0.043206  -0.043525  -0.056493  -0.059773   0.004495
    13  C   -0.003335   0.377819   0.378591   0.371419  -0.003078  -0.000135
    14  C    0.003882   0.002350  -0.000934   0.001440   0.369159  -0.033905
    15  C   -0.000381  -0.000216   0.000415   0.000177  -0.030269   0.357749
    16  C    0.005060  -0.000002  -0.000003   0.000009   0.005098  -0.036024
    17  O    0.000100   0.000000  -0.000000  -0.000000  -0.000000   0.000000
    18  H    0.000000   0.000000   0.000000   0.000000   0.000000   0.000000
    19  H    0.000000   0.000000   0.000000   0.000000   0.000000   0.000000
    20  H    0.000000   0.000000   0.000000   0.000000  -0.000000   0.000000
    21  H   -0.000000   0.000000   0.000000  -0.000000   0.000000  -0.000000
    22  H    0.000000  -0.000000  -0.000000   0.000000   0.000000   0.000000
    23  H   -0.000000  -0.000000  -0.000000   0.000000   0.000000  -0.000000
    24  H    0.000000  -0.000000  -0.000000   0.000000  -0.000000  -0.000000
    25  H   -0.000000  -0.000000  -0.000000   0.000000  -0.000000  -0.000000
    26  H   -0.000000   0.000000   0.000000  -0.000000  -0.000000   0.000000
    27  H   -0.000000  -0.000000  -0.000000   0.000000  -0.000000  -0.000000
    28  H   -0.000000  -0.000000   0.000000   0.000000  -0.000000  -0.000000
    29  H    0.000002  -0.000000  -0.000000   0.000000  -0.000000   0.000000
    30  H    0.002910   0.000001   0.000000  -0.000000  -0.000000   0.000000
    31  H    0.581855   0.004234   0.000138  -0.000106  -0.000160   0.000010
    32  H    0.004234   0.571022  -0.023713  -0.041945   0.000130   0.000003
    33  H    0.000138  -0.023713   0.571196  -0.042303   0.003865  -0.000000
    34  H   -0.000106  -0.041945  -0.042303   0.611899  -0.000049  -0.000002
    35  H   -0.000160   0.000130   0.003865  -0.000049   0.584375  -0.005089
    36  H    0.000010   0.000003  -0.000000  -0.000002  -0.005089   0.600062
    37  H   -0.000092   0.000001   0.000001  -0.000012  -0.000099   0.000117
    38  H   -0.000162  -0.000002  -0.000002   0.000003  -0.000145  -0.001820
              37         38
     1  C   -0.000000   0.000000
     2  C    0.000000  -0.000000
     3  C   -0.000001   0.000000
     4  C    0.000006  -0.000004
     5  C   -0.000005  -0.000017
     6  C   -0.000167  -0.000170
     7  C    0.000032   0.000002
     8  C   -0.000070   0.000061
     9  C   -0.005674  -0.003598
    10  C   -0.039249  -0.043749
    11  C   -0.000191   0.000987
    12  N    0.001522   0.000760
    13  C    0.000020  -0.000003
    14  C   -0.001100   0.000669
    15  C   -0.044297  -0.044165
    16  C    0.367079   0.371401
    17  O    0.003650   0.002786
    18  H    0.000000  -0.000000
    19  H    0.000000  -0.000000
    20  H    0.000000  -0.000000
    21  H    0.000000  -0.000000
    22  H   -0.000000   0.000000
    23  H   -0.000000   0.000000
    24  H    0.000000   0.000000
    25  H   -0.000002   0.000000
    26  H    0.000136  -0.000008
    27  H   -0.000014   0.000042
    28  H   -0.000000  -0.000000
    29  H   -0.000000  -0.000000
    30  H   -0.000002  -0.000007
    31  H   -0.000092  -0.000162
    32  H    0.000001  -0.000002
    33  H    0.000001  -0.000002
    34  H   -0.000012   0.000003
    35  H   -0.000099  -0.000145
    36  H    0.000117  -0.001820
    37  H    0.623517  -0.054201
    38  H   -0.054201   0.623789
 Mulliken charges:
               1
     1  C   -0.405447
     2  C   -0.237220
     3  C   -0.232059
     4  C   -0.235653
     5  C   -0.310862
     6  C    0.315150
     7  C   -0.191863
     8  C   -0.140207
     9  C    0.185640
    10  C    0.049597
    11  C    0.104690
    12  N   -0.611301
    13  C   -0.239648
    14  C    0.128809
    15  C   -0.145118
    16  C   -0.310288
    17  O   -0.559427
    18  H    0.129820
    19  H    0.131051
    20  H    0.130279
    21  H    0.123751
    22  H    0.125250
    23  H    0.120714
    24  H    0.117474
    25  H    0.126606
    26  H    0.144929
    27  H    0.147047
    28  H    0.136945
    29  H    0.133105
    30  H    0.129486
    31  H    0.136727
    32  H    0.154202
    33  H    0.154195
    34  H    0.154457
    35  H    0.131763
    36  H    0.110758
    37  H    0.149095
    38  H    0.147553
 Sum of Mulliken charges =  -0.00000
 Mulliken charges with hydrogens summed into heavy atoms:
               1
     1  C   -0.014296
     2  C    0.011780
     3  C    0.006129
     4  C    0.035881
     5  C   -0.026870
     6  C    0.315150
     7  C   -0.058757
     8  C   -0.010721
     9  C    0.185640
    10  C    0.049597
    11  C    0.241417
    12  N   -0.611301
    13  C    0.223206
    14  C    0.260571
    15  C   -0.034360
    16  C   -0.013640
    17  O   -0.559427
 Electronic spatial extent (au):  <R**2>=           7632.9768
 Charge=             -0.0000 electrons
 Dipole moment (field-independent basis, Debye):
    X=             -1.8317    Y=              0.4193    Z=              0.8963  Tot=              2.0819
 Quadrupole moment (field-independent basis, Debye-Ang):
   XX=            -81.2795   YY=            -99.0475   ZZ=           -105.9756
   XY=              1.0113   XZ=             -5.6537   YZ=              2.4438
 Traceless Quadrupole moment (field-independent basis, Debye-Ang):
   XX=             14.1547   YY=             -3.6133   ZZ=            -10.5414
   XY=              1.0113   XZ=             -5.6537   YZ=              2.4438
 Octapole moment (field-independent basis, Debye-Ang**2):
  XXX=           -131.1894  YYY=              6.6573  ZZZ=              0.6007  XYY=             -8.4052
  XXY=              2.3220  XXZ=             28.8647  XZZ=              2.0312  YZZ=             -3.6457
  YYZ=              0.2333  XYZ=             -7.4236
 Hexadecapole moment (field-independent basis, Debye-Ang**3):
 XXXX=          -8094.4128 YYYY=          -1291.3965 ZZZZ=           -340.4222 XXXY=             83.0227
 XXXZ=           -151.8913 YYYX=             22.1522 YYYZ=             27.5396 ZZZX=            -19.6605
 ZZZY=             -0.6142 XXYY=          -1629.2738 XXZZ=          -1532.4254 YYZZ=           -293.8078
 XXYZ=             19.5259 YYXZ=              2.3152 ZZXY=             -7.3327
 N-N= 1.123714494773D+03 E-N=-3.905669963727D+03  KE= 7.099032029510D+02
 Unable to Open any file for archive entry.
 1\1\GINC-N2\SP\RB3LYP TD-FC\6-31G\C15H21N1O1\HPCMGAC13\13-Jun-2025\0\\
 # td=(50-50,nstates=3) b3lyp/6-31g\\[No Title]\\0,1\C,0,6.761372,-1.57
 1019,0.421747\C,0,5.319659,-1.211554,0.815243\C,0,4.659833,-0.213514,-
 0.154112\C,0,3.215719,0.146724,0.233943\C,0,2.563775,1.148767,-0.75011
 4\C,0,1.154173,1.494074,-0.416075\C,0,0.506879,2.636729,-0.028292\C,0,
 -0.881141,2.318848,0.151908\C,0,-1.041603,0.977329,-0.123196\C,0,-2.14
 2779,0.039851,-0.124731\C,0,-3.365011,0.39905,0.349126\N,0,-4.479772,-
 0.433607,0.318897\C,0,-5.7048,-0.062301,1.020315\C,0,-4.33443,-1.71675
 9,-0.232003\C,0,-3.162894,-2.170524,-0.71013\C,0,-1.885037,-1.360047,-
 0.680199\O,0,0.215441,0.452548,-0.481187\H,0,7.204078,-2.281766,1.1292
 36\H,0,6.795722,-2.026506,-0.576037\H,0,7.3989,-0.678014,0.401231\H,0,
 5.310318,-0.78821,1.830448\H,0,4.711163,-2.126747,0.858964\H,0,4.66956
 3,-0.636692,-1.170691\H,0,5.267871,0.703791,-0.197468\H,0,3.198568,0.5
 76642,1.245414\H,0,2.602022,-0.763172,0.269803\H,0,2.611887,0.726022,-
 1.765018\H,0,3.147561,2.07806,-0.769106\H,0,0.963732,3.605746,0.105719
 \H,0,-1.659836,3.009958,0.435636\H,0,-3.54199,1.382136,0.771252\H,0,-5
 .839558,1.022643,0.978736\H,0,-6.565012,-0.528562,0.53076\H,0,-5.69756
 9,-0.370574,2.07641\H,0,-5.242115,-2.309075,-0.256967\H,0,-3.126002,-3
 .162025,-1.149669\H,0,-1.108698,-1.867358,-0.082668\H,0,-1.448017,-1.2
 85344,-1.689354\\Version=ES64L-G16RevC.02\State=1-A\HF=-713.9925515\RM
 SD=6.507e-09\PG=C01 [X(C15H21N1O1)]\\@
 The archive entry for this job was punched.


 IF AT FIRST YOU DON'T SUCCEED, TRY, TRY AGAIN.
 THEN GIVE UP;
 THERE'S NO USE BEING A DAMN FOOL ABOUT IT.

                                 -- W. C. FIELDS
 Job cpu time:       0 days  0 hours 11 minutes  8.6 seconds.
 Elapsed time:       0 days  0 hours  0 minutes 43.9 seconds.
 File lengths (MBytes):  RWF=    421 Int=      0 D2E=      0 Chk=     13 Scr=      2
 Normal termination of Gaussian 16 at Fri Jun 13 11:34:17 2025.
