 Entering Gaussian System, Link 0=g16
 Input=M2212.gjf
 Output=M2212.log
 Initial command:
 /hpc/softwares/Gaussian/g16/l1.exe "/hpc/home/hpcmgac13/pbs.11130.admin1.x8z/Gau-188553.inp" -scrdir="/hpc/home/hpcmgac13/pbs.11130.admin1.x8z/"
 Default linda workers: n2
 Default is to use  16 SMP processors on each worker.
 Entering Link 1 = /hpc/softwares/Gaussian/g16/l1.exe PID=    188554.
  
 Copyright (c) 1988-2021, Gaussian, Inc.  All Rights Reserved.
  
 This is part of the Gaussian(R) 16 program.  It is based on
 the Gaussian(R) 09 system (copyright 2009, Gaussian, Inc.),
 the Gaussian(R) 03 system (copyright 2003, Gaussian, Inc.),
 the Gaussian(R) 98 system (copyright 1998, Gaussian, Inc.),
 the Gaussian(R) 94 system (copyright 1995, Gaussian, Inc.),
 the Gaussian 92(TM) system (copyright 1992, Gaussian, Inc.),
 the Gaussian 90(TM) system (copyright 1990, Gaussian, Inc.),
 the Gaussian 88(TM) system (copyright 1988, Gaussian, Inc.),
 the Gaussian 86(TM) system (copyright 1986, Carnegie Mellon
 University), and the Gaussian 82(TM) system (copyright 1983,
 Carnegie Mellon University). Gaussian is a federally registered
 trademark of Gaussian, Inc.
  
 This software contains proprietary and confidential information,
 including trade secrets, belonging to Gaussian, Inc.
  
 This software is provided under written license and may be
 used, copied, transmitted, or stored only in accord with that
 written license.
  
 The following legend is applicable only to US Government
 contracts under FAR:
  
                    RESTRICTED RIGHTS LEGEND
  
 Use, reproduction and disclosure by the US Government is
 subject to restrictions as set forth in subparagraphs (a)
 and (c) of the Commercial Computer Software - Restricted
 Rights clause in FAR 52.227-19.
  
 Gaussian, Inc.
 340 Quinnipiac St., Bldg. 40, Wallingford CT 06492
  
  
 ---------------------------------------------------------------
 Warning -- This program may not be used in any manner that
 competes with the business of Gaussian, Inc. or will provide
 assistance to any competitor of Gaussian, Inc.  The licensee
 of this program is prohibited from giving any competitor of
 Gaussian, Inc. access to this program.  By using this program,
 the user acknowledges that Gaussian, Inc. is engaged in the
 business of creating and licensing software in the field of
 computational chemistry and represents and warrants to the
 licensee that it is not a competitor of Gaussian, Inc. and that
 it will not use this program in any manner prohibited above.
 ---------------------------------------------------------------
  

 Cite this work as:
 Gaussian 16, Revision C.02,
 M. J. Frisch, G. W. Trucks, H. B. Schlegel, G. E. Scuseria, 
 M. A. Robb, J. R. Cheeseman, G. Scalmani, V. Barone, 
 G. A. Petersson, H. Nakatsuji, X. Li, M. Caricato, A. V. Marenich, 
 J. Bloino, B. G. Janesko, R. Gomperts, B. Mennucci, H. P. Hratchian, 
 J. V. Ortiz, A. F. Izmaylov, J. L. Sonnenberg, D. Williams-Young, 
 F. Ding, F. Lipparini, F. Egidi, J. Goings, B. Peng, A. Petrone, 
 T. Henderson, D. Ranasinghe, V. G. Zakrzewski, J. Gao, N. Rega, 
 G. Zheng, W. Liang, M. Hada, M. Ehara, K. Toyota, R. Fukuda, 
 J. Hasegawa, M. Ishida, T. Nakajima, Y. Honda, O. Kitao, H. Nakai, 
 T. Vreven, K. Throssell, J. A. Montgomery, Jr., J. E. Peralta, 
 F. Ogliaro, M. J. Bearpark, J. J. Heyd, E. N. Brothers, K. N. Kudin, 
 V. N. Staroverov, T. A. Keith, R. Kobayashi, J. Normand, 
 K. Raghavachari, A. P. Rendell, J. C. Burant, S. S. Iyengar, 
 J. Tomasi, M. Cossi, J. M. Millam, M. Klene, C. Adamo, R. Cammi, 
 J. W. Ochterski, R. L. Martin, K. Morokuma, O. Farkas, 
 J. B. Foresman, and D. J. Fox, Gaussian, Inc., Wallingford CT, 2019.
 
 ******************************************
 Gaussian 16:  ES64L-G16RevC.02  7-Dec-2021
                13-Jun-2025 
 ******************************************
 SetLPE:    new flags="-opt 'Tsnet.Node.lindarsharg: ssh'  -nodelist 'n2.head.cm.mguif.local' -env GAUSS_MDEF=4294967296 -env GAUSS_EXEDIR="/hpc/softwares/Gaussian/g16/bsd:/hpc/softwares/Gaussian/g16""
 Will use up to    1 processors via Linda.
 ----------------------------------
 # td=(50-50,nstates=3) b3lyp/6-31g
 ----------------------------------
 1/38=1,172=1/1;
 2/12=2,17=6,18=5,40=1/2;
 3/5=1,6=6,11=9,25=1,30=1,74=-5/1,2,3,8;
 4//1;
 5/5=2,38=5/2;
 8/6=1,10=2,108=3/1;
 9/41=3,42=1,48=2,70=2/14;
 6/7=2,8=2,9=2,10=2/1;
 99/5=1,9=1/99;
 ----------
 [No Title]
 ----------
 Symbolic Z-matrix:
 Charge =  0 Multiplicity = 1
 C                     1.07881   4.91084   0.41425 
 C                     0.38215   3.57414   0.286 
 C                    -0.95843   3.49655  -0.12182 
 C                    -1.61997   2.27155  -0.27449 
 C                    -3.07148   2.25463  -0.70657 
 C                    -0.92471   1.06338  -0.00792 
 C                    -1.6065   -0.25577  -0.20479 
 C                    -2.29384  -0.8433    0.80089 
 N                    -2.92491  -2.08673   0.69212 
 C                    -3.82249  -2.56328   1.73921 
 C                    -2.81821  -2.77037  -0.52814 
 C                    -2.16042  -2.27137  -1.58992 
 C                    -1.50227  -0.90623  -1.58615 
 C                     0.42499   1.13279   0.40377 
 C                     1.21683  -0.1199    0.71329 
 C                     2.19883  -0.52615  -0.35903 
 O                     2.24511  -0.09973  -1.5123 
 C                     3.22048  -1.58926   0.08799 
 F                     2.56924  -2.68513   0.64943 
 F                     4.00861  -2.0401   -0.94183 
 F                     4.05491  -1.06245   1.07402 
 C                     1.05547   2.37792   0.55153 
 H                     0.41584   5.66942   0.84558 
 H                     1.96849   4.83924   1.04832 
 H                     1.40437   5.28433  -0.56605 
 H                    -1.50387   4.4152   -0.32411 
 H                    -3.4244    3.26797  -0.92155 
 H                    -3.21915   1.64899  -1.60845 
 H                    -3.71931   1.82797   0.06802 
 H                    -2.3772   -0.37228   1.77529 
 H                    -3.46718  -2.21913   2.71524 
 H                    -4.85686  -2.21261   1.60487 
 H                    -3.82941  -3.65755   1.75006 
 H                    -3.28972  -3.74676  -0.54746 
 H                    -2.08847  -2.87184  -2.49095 
 H                    -0.44373  -0.97895  -1.88714 
 H                    -1.95395  -0.24775  -2.35161 
 H                     1.7756   -0.00844   1.65293 
 H                     0.54011  -0.97293   0.86886 
 H                     2.09205   2.41224   0.87865 
 
                          Input orientation:                          
 ---------------------------------------------------------------------
 Center     Atomic      Atomic             Coordinates (Angstroms)
 Number     Number       Type             X           Y           Z
 ---------------------------------------------------------------------
      1          6           0        1.078807    4.910841    0.414246
      2          6           0        0.382148    3.574135    0.286001
      3          6           0       -0.958430    3.496553   -0.121819
      4          6           0       -1.619969    2.271549   -0.274494
      5          6           0       -3.071476    2.254630   -0.706574
      6          6           0       -0.924711    1.063382   -0.007918
      7          6           0       -1.606504   -0.255771   -0.204789
      8          6           0       -2.293841   -0.843304    0.800894
      9          7           0       -2.924912   -2.086733    0.692119
     10          6           0       -3.822491   -2.563282    1.739208
     11          6           0       -2.818206   -2.770371   -0.528142
     12          6           0       -2.160423   -2.271369   -1.589922
     13          6           0       -1.502265   -0.906232   -1.586154
     14          6           0        0.424991    1.132786    0.403766
     15          6           0        1.216828   -0.119896    0.713288
     16          6           0        2.198828   -0.526151   -0.359027
     17          8           0        2.245110   -0.099733   -1.512303
     18          6           0        3.220482   -1.589257    0.087991
     19          9           0        2.569244   -2.685130    0.649429
     20          9           0        4.008612   -2.040100   -0.941827
     21          9           0        4.054909   -1.062447    1.074020
     22          6           0        1.055465    2.377919    0.551525
     23          1           0        0.415839    5.669424    0.845584
     24          1           0        1.968485    4.839235    1.048321
     25          1           0        1.404370    5.284330   -0.566047
     26          1           0       -1.503865    4.415203   -0.324109
     27          1           0       -3.424395    3.267970   -0.921545
     28          1           0       -3.219151    1.648986   -1.608445
     29          1           0       -3.719308    1.827968    0.068017
     30          1           0       -2.377202   -0.372275    1.775291
     31          1           0       -3.467177   -2.219133    2.715243
     32          1           0       -4.856863   -2.212610    1.604874
     33          1           0       -3.829406   -3.657545    1.750063
     34          1           0       -3.289722   -3.746764   -0.547460
     35          1           0       -2.088468   -2.871840   -2.490953
     36          1           0       -0.443731   -0.978954   -1.887143
     37          1           0       -1.953950   -0.247746   -2.351613
     38          1           0        1.775597   -0.008440    1.652928
     39          1           0        0.540111   -0.972927    0.868862
     40          1           0        2.092046    2.412240    0.878652
 ---------------------------------------------------------------------
                    Distance matrix (angstroms):
                    1          2          3          4          5
     1  C    0.000000
     2  C    1.512800   0.000000
     3  C    2.537304   1.403384   0.000000
     4  C    3.837137   2.453438   1.400564   0.000000
     5  C    5.053370   3.828030   2.519777   1.514547   0.000000
     6  C    4.358354   2.845725   2.436069   1.419195   2.552605
     7  C    5.855594   4.343247   3.808782   2.528317   2.949584
     8  C    6.680901   5.190356   4.633474   3.363461   3.531908
     9  N    8.066785   6.568638   5.975168   4.651004   4.563470
    10  C    9.035528   7.580151   6.956139   5.681698   5.455103
    11  C    8.664631   7.152472   6.549672   5.188551   5.034543
    12  C    8.129787   6.644823   6.071988   4.760309   4.700531
    13  C    6.670972   5.208615   4.671675   3.439854   3.636913
    14  C    3.834225   2.444563   2.788815   2.436941   3.836231
    15  C    5.041507   3.811185   4.302076   3.839549   5.103326
    16  C    5.604755   4.530864   5.119247   4.734710   5.969057
    17  O    5.493424   4.494645   5.012922   4.700424   5.870120
    18  C    6.851605   5.895419   6.585802   6.202192   7.415898
    19  F    7.744384   6.640321   7.159086   6.555288   7.619560
    20  F    7.664090   6.795472   7.483211   7.121557   8.284183
    21  F    6.706165   5.967247   6.880994   6.718501   8.059707
    22  C    2.536747   1.398139   2.400106   2.802065   4.316208
    23  H    1.095914   2.168987   2.746971   4.116387   5.121658
    24  H    1.094854   2.167504   3.426201   4.606501   5.929675
    25  H    1.098390   2.166954   2.996049   4.278841   5.406665
    26  H    2.731487   2.153294   1.087354   2.147369   2.696620
    27  H    4.976162   4.005206   2.602459   2.160436   1.094359
    28  H    5.762241   4.501608   3.276342   2.173567   1.096350
    29  H    5.713658   4.463021   3.231511   2.172856   1.096229
    30  H    6.458154   5.040451   4.536493   3.429989   3.679986
    31  H    8.763395   7.367528   6.856515   5.702362   5.646235
    32  H    9.348440   7.916633   7.125573   5.840992   5.337287
    33  H    9.964547   8.495755   7.932690   6.643388   6.446963
    34  H    9.744899   8.232427   7.621137   6.251614   6.007469
    35  H    8.890553   7.440834   6.888121   5.620199   5.516431
    36  H    6.504168   5.112265   4.838538   3.814439   4.330687
    37  H    6.592315   5.198186   4.470214   3.282197   3.196389
    38  H    5.120466   4.079832   4.786398   4.521413   5.846610
    39  H    5.925841   4.586987   4.816983   4.061999   5.093396
    40  H    2.735934   2.150578   3.388522   3.889549   5.403679
                    6          7          8          9         10
     6  C    0.000000
     7  C    1.497920   0.000000
     8  C    2.482770   1.352415   0.000000
     9  N    3.796588   2.427976   1.398642   0.000000
    10  C    4.960068   3.743572   2.485061   1.459158   0.000000
    11  C    4.307391   2.809981   2.398934   1.402777   2.488443
    12  C    3.892337   2.507599   2.788041   2.413762   3.732397
    13  C    2.589165   1.530403   2.515661   2.933945   4.380331
    14  C    1.412797   2.534838   3.384478   4.655137   5.786659
    15  C    2.550779   2.971957   3.585497   4.585074   5.693627
    16  C    3.522270   3.818042   4.650815   5.458300   6.693936
    17  O    3.696455   4.070488   5.148384   5.961273   7.311442
    18  C    4.922227   5.016343   5.610030   6.195024   7.299227
    19  F    5.166350   4.905950   5.202390   5.526812   6.485117
    20  F    5.902666   5.937725   6.647579   7.123602   8.293844
    21  F    5.521445   5.859836   6.358400   7.064907   8.046640
    22  C    2.441737   3.820263   4.653634   5.983000   7.044183
    23  H    4.872490   6.348314   7.054076   8.446428   9.302658
    24  H    4.872709   6.349009   7.107735   8.487712   9.423905
    25  H    4.853095   6.315741   7.286507   8.640500   9.706662
    26  H    3.416153   4.673625   5.435218   6.732553   7.637575
    27  H    3.455914   4.029295   4.598644   5.614823   6.421961
    28  H    2.858159   2.863386   3.587844   4.397132   5.414241
    29  H    2.898298   2.979989   3.115246   4.042951   4.699639
    30  H    2.711213   2.127972   1.085480   2.100622   2.625009
    31  H    4.965344   3.980387   2.633316   2.098717   1.094226
    32  H    5.366101   4.203443   3.015040   2.140421   1.100428
    33  H    5.815058   4.509413   3.343476   2.098763   1.094339
    34  H    5.387197   3.890717   3.352599   2.103650   2.629320
    35  H    4.796433   3.507514   3.872130   3.383486   4.582173
    36  H    2.816729   2.169182   3.266015   3.746468   5.203512
    37  H    2.875986   2.174773   3.226223   3.686319   5.058455
    38  H    3.346472   3.866638   4.240670   5.228503   6.154125
    39  H    2.657254   2.504994   2.837729   3.643925   4.724302
    40  H    3.421439   4.687366   5.462657   6.741322   7.776768
                   11         12         13         14         15
    11  C    0.000000
    12  C    1.345012   0.000000
    13  C    2.515175   1.515515   0.000000
    14  C    5.159594   4.716718   3.439723   0.000000
    15  C    4.984743   4.619463   3.646810   1.513943   0.000000
    16  C    5.498705   4.854272   3.917702   2.545667   1.509711
    17  O    5.808446   4.912306   3.833890   2.916034   2.451739
    18  C    6.183883   5.677571   5.057037   3.914588   2.562157
    19  F    5.515302   5.249347   4.973881   4.385733   2.900609
    20  F    6.878217   6.207295   5.663089   4.971938   3.771027
    21  F    7.261104   6.869384   6.163044   4.294717   3.012181
    22  C    6.532679   6.045131   4.679455   1.403455   2.508243
    23  H    9.142008   8.696264   7.268543   4.558110   5.845965
    24  H    9.127089   8.635328   7.210891   4.066398   5.026949
    25  H    9.094492   8.416927   6.914637   4.374361   5.556755
    26  H    7.307640   6.836929   5.469043   3.876151   5.389386
    27  H    6.081430   5.720894   4.643302   4.597090   5.974217
    28  H    4.567114   4.060841   3.078528   4.194666   5.310113
    29  H    4.723570   4.688651   3.889397   4.215592   5.345651
    30  H    3.354274   3.870169   3.514248   3.463896   3.756141
    31  H    3.353293   4.499420   4.907811   5.632696   5.509494
    32  H    3.002828   4.181024   4.810677   6.366500   6.485684
    33  H    2.645718   3.982774   4.910769   6.546731   6.249347
    34  H    1.084456   2.130454   3.513191   6.205959   5.920528
    35  H    2.096531   1.085173   2.241854   5.543817   5.363333
    36  H    3.270197   2.169264   1.102895   3.234561   3.202761
    37  H    3.230421   2.172062   1.106142   3.893243   4.411779
    38  H    5.786912   5.579353   4.694897   2.164934   1.098894
    39  H    4.057181   3.876139   3.194190   2.159536   1.099914
    40  H    7.276613   6.790695   5.477828   2.154435   2.684225
                   16         17         18         19         20
    16  C    0.000000
    17  O    1.230455   0.000000
    18  C    1.540713   2.393945   0.000000
    19  F    2.411510   3.385620   1.392933   0.000000
    20  F    2.430435   2.683357   1.372929   2.240522   0.000000
    21  F    2.405467   3.300190   1.395009   2.240665   2.240890
    22  C    3.251155   3.437063   4.543198   5.285412   5.519970
    23  H    6.558604   6.495309   7.818467   8.629844   8.691353
    24  H    5.551671   5.570164   6.619308   7.558842   7.446345
    25  H    5.868195   5.530857   7.139484   8.145343   7.782709
    26  H    6.174798   5.987593   7.651328   8.243344   8.511164
    27  H    6.806792   6.620703   8.292539   8.592501   9.133762
    28  H    5.970491   5.738067   7.404930   7.575492   8.142131
    29  H    6.383461   6.464343   7.735536   7.762215   8.700717
    30  H    5.051638   5.678761   5.971775   5.575320   7.137436
    31  H    6.664903   7.415809   7.212765   6.397118   8.324280
    32  H    7.515572   8.038598   8.242148   7.502214   9.225622
    33  H    7.112910   7.758918   7.532677   6.565037   8.443751
    34  H    6.366478   6.698218   6.887771   6.073475   7.505592
    35  H    5.331817   5.236624   6.039944   5.620600   6.345547
    36  H    3.085982   2.853664   4.207146   4.292232   4.673651
    37  H    4.614485   4.284677   5.875889   5.950326   6.383743
    38  H    2.120168   3.201166   2.652490   2.966742   3.980798
    39  H    2.111554   3.056049   2.859023   2.664052   4.055607
    40  H    3.190203   3.471326   4.232079   5.124787   5.177905
                   21         22         23         24         25
    21  F    0.000000
    22  C    4.594103   0.000000
    23  H    7.655919   3.365947   0.000000
    24  H    6.259687   2.671795   1.772294   0.000000
    25  H    7.070838   3.133357   1.765841   1.767065   0.000000
    26  H    7.928391   3.386360   2.574202   3.757736   3.044954
    27  H    8.869880   4.799091   4.861802   5.952512   5.244908
    28  H    8.213369   4.844497   5.949734   6.644371   5.973212
    29  H    8.354938   4.830599   5.697441   6.509970   6.212934
    30  H    6.506932   4.565564   6.720682   6.824465   7.195786
    31  H    7.785455   6.802121   8.989036   9.063421   9.528945
    32  H    9.001353   7.558976   9.513378   9.829733  10.006001
    33  H    8.327904   7.856544  10.287494  10.310347  10.616681
    34  H    7.986135   7.589477  10.214517  10.193853  10.178188
    35  H    7.329667   6.833810   9.505642   9.404574   9.079003
    36  H    5.386392   4.411722   7.239308   6.948889   6.662544
    37  H    6.964559   4.937500   7.130980   7.267904   6.713451
    38  H    2.577077   2.725140   5.893970   4.889040   5.751093
    39  H    3.521918   3.405064   6.643554   5.987795   6.477590
    40  H    3.995554   1.087516   3.663333   2.436054   3.287697
                   26         27         28         29         30
    26  H    0.000000
    27  H    2.315493   0.000000
    28  H    3.499097   1.770612   0.000000
    29  H    3.428664   1.771952   1.758612   0.000000
    30  H    5.300014   4.649830   4.030390   3.091456   0.000000
    31  H    7.556895   6.583036   5.806732   4.842562   2.341461
    32  H    7.674078   6.202541   5.283885   4.470149   3.092668
    33  H    8.653299   7.433995   6.309616   5.738663   3.592009
    34  H    8.358043   7.025992   5.499526   5.625033   4.197028
    35  H    7.624826   6.476497   4.742903   5.594297   4.952982
    36  H    5.715233   5.277604   3.832323   4.736124   4.185665
    37  H    5.104551   4.070327   2.398046   3.644130   4.150420
    38  H    5.850826   6.663534   6.191213   6.006523   4.170502
    39  H    5.884978   6.075201   5.209945   5.160331   3.113376
    40  H    4.288248   5.865501   5.914137   5.896638   5.341504
                   31         32         33         34         35
    31  H    0.000000
    32  H    1.778817   0.000000
    33  H    1.769692   1.778928   0.000000
    34  H    3.606990   3.072800   2.361743   0.000000
    35  H    5.425066   4.987424   4.651281   2.446563   0.000000
    36  H    5.644575   5.761235   5.645079   4.189891   2.579295
    37  H    5.643514   5.285961   5.654008   4.157208   2.631232
    38  H    5.788122   6.989292   6.688906   6.668900   6.348370
    39  H    4.584813   5.586220   5.203496   4.936371   4.669438
    40  H    7.465095   8.378781   8.524391   8.302443   7.533421
                   36         37         38         39         40
    36  H    0.000000
    37  H    1.741022   0.000000
    38  H    4.289454   5.477512   0.000000
    39  H    2.926354   4.137353   1.752547   0.000000
    40  H    5.057666   5.820672   2.561120   3.723970   0.000000
 Stoichiometry    C17H18F3NO
 Framework group  C1[X(C17H18F3NO)]
 Deg. of freedom   114
 Full point group                 C1      NOp   1
 Largest Abelian subgroup         C1      NOp   1
 Largest concise Abelian subgroup C1      NOp   1
                         Standard orientation:                         
 ---------------------------------------------------------------------
 Center     Atomic      Atomic             Coordinates (Angstroms)
 Number     Number       Type             X           Y           Z
 ---------------------------------------------------------------------
      1          6           0       -1.078809    4.910840   -0.414246
      2          6           0       -0.382150    3.574135   -0.286001
      3          6           0        0.958428    3.496553    0.121819
      4          6           0        1.619968    2.271550    0.274494
      5          6           0        3.071475    2.254631    0.706574
      6          6           0        0.924710    1.063382    0.007918
      7          6           0        1.606504   -0.255770    0.204789
      8          6           0        2.293841   -0.843303   -0.800894
      9          7           0        2.924913   -2.086732   -0.692119
     10          6           0        3.822492   -2.563280   -1.739208
     11          6           0        2.818207   -2.770370    0.528142
     12          6           0        2.160424   -2.271368    1.589922
     13          6           0        1.502265   -0.906231    1.586154
     14          6           0       -0.424992    1.132786   -0.403766
     15          6           0       -1.216828   -0.119897   -0.713288
     16          6           0       -2.198828   -0.526152    0.359027
     17          8           0       -2.245110   -0.099734    1.512303
     18          6           0       -3.220481   -1.589258   -0.087991
     19          9           0       -2.569243   -2.685131   -0.649429
     20          9           0       -4.008611   -2.040102    0.941827
     21          9           0       -4.054909   -1.062449   -1.074020
     22          6           0       -1.055466    2.377918   -0.551525
     23          1           0       -0.415842    5.669424   -0.845584
     24          1           0       -1.968487    4.839234   -1.048321
     25          1           0       -1.404372    5.284329    0.566047
     26          1           0        1.503863    4.415204    0.324109
     27          1           0        3.424393    3.267972    0.921545
     28          1           0        3.219150    1.648987    1.608445
     29          1           0        3.719307    1.827970   -0.068017
     30          1           0        2.377202   -0.372274   -1.775291
     31          1           0        3.467178   -2.219131   -2.715243
     32          1           0        4.856864   -2.212608   -1.604874
     33          1           0        3.829408   -3.657543   -1.750063
     34          1           0        3.289724   -3.746763    0.547460
     35          1           0        2.088469   -2.871839    2.490953
     36          1           0        0.443731   -0.978954    1.887143
     37          1           0        1.953950   -0.247745    2.351613
     38          1           0       -1.775597   -0.008441   -1.652928
     39          1           0       -0.540111   -0.972927   -0.868862
     40          1           0       -2.092047    2.412239   -0.878652
 ---------------------------------------------------------------------
 Rotational constants (GHZ):           0.2777202           0.2309949           0.1452340
 Standard basis: 6-31G (6D, 7F)
 There are   234 symmetry adapted cartesian basis functions of A   symmetry.
 There are   234 symmetry adapted basis functions of A   symmetry.
   234 basis functions,   556 primitive gaussians,   234 cartesian basis functions
    81 alpha electrons       81 beta electrons
       nuclear repulsion energy      1825.5967522815 Hartrees.
 NAtoms=   40 NActive=   40 NUniq=   40 SFac= 1.00D+00 NAtFMM=   60 NAOKFM=F Big=F
 Integral buffers will be    131072 words long.
 Regular integral format.
 Two-electron integral symmetry is turned on.
 One-electron integrals computed using PRISM.
 NBasis=   234 RedAO= T EigKep=  4.24D-04  NBF=   234
 NBsUse=   234 1.00D-06 EigRej= -1.00D+00 NBFU=   234
 ExpMin= 1.61D-01 ExpMax= 7.00D+03 ExpMxC= 1.05D+03 IAcc=3 IRadAn=         5 AccDes= 0.00D+00
 Harris functional with IExCor=  402 and IRadAn=       5 diagonalized for initial guess.
 HarFok:  IExCor=  402 AccDes= 0.00D+00 IRadAn=         5 IDoV= 1 UseB2=F ITyADJ=14
 ICtDFT=  3500011 ScaDFX=  1.000000  1.000000  1.000000  1.000000
 FoFCou: FMM=F IPFlag=           0 FMFlag=      100000 FMFlg1=           0
         NFxFlg=           0 DoJE=T BraDBF=F KetDBF=T FulRan=T
         wScrn=  0.000000 ICntrl=       500 IOpCl=  0 I1Cent=   200000004 NGrid=           0
         NMat0=    1 NMatS0=      1 NMatT0=    0 NMatD0=    1 NMtDS0=    0 NMtDT0=    0
 Petite list used in FoFCou.
 Requested convergence on RMS density matrix=1.00D-08 within 128 cycles.
 Requested convergence on MAX density matrix=1.00D-06.
 Requested convergence on             energy=1.00D-06.
 No special actions if energy rises.
 Integral accuracy reduced to 1.0D-05 until final iterations.
 Initial convergence to 1.0D-05 achieved.  Increase integral accuracy.
 SCF Done:  E(RB3LYP) =  -1087.84285365     A.U. after   15 cycles
            NFock= 15  Conv=0.98D-08     -V/T= 2.0054
 DoSCS=F DFT=T ScalE2(SS,OS)=  1.000000  1.000000
 ExpMin= 1.61D-01 ExpMax= 7.00D+03 ExpMxC= 1.05D+03 IAcc=3 IRadAn=         5 AccDes= 0.00D+00
 HarFok:  IExCor=  205 AccDes= 0.00D+00 IRadAn=         5 IDoV=-2 UseB2=F ITyADJ=14
 ICtDFT= 12500011 ScaDFX=  1.000000  1.000000  1.000000  1.000000
 GSVD:  LWork=        -660 too small for GESVD, short by        2750 words or        2750 for optimal perf.
 Range of M.O.s used for correlation:    23   234
 NBasis=   234 NAE=    81 NBE=    81 NFC=    22 NFV=     0
 NROrb=    212 NOA=    59 NOB=    59 NVA=   153 NVB=   153

 **** Warning!!: The largest alpha MO coefficient is  0.13872199D+02

 Keep R1, R2, and R3 ints in memory in canonical form, NReq=1241137948.
 Orbital symmetries:
       Occupied  (A) (A) (A) (A) (A) (A) (A) (A) (A) (A) (A) (A)
                 (A) (A) (A) (A) (A) (A) (A) (A) (A) (A) (A) (A)
                 (A) (A) (A) (A) (A) (A) (A) (A) (A) (A) (A) (A)
                 (A) (A) (A) (A) (A) (A) (A) (A) (A) (A) (A) (A)
                 (A) (A) (A) (A) (A) (A) (A) (A) (A) (A) (A) (A)
                 (A) (A) (A) (A) (A) (A) (A) (A) (A) (A) (A) (A)
                 (A) (A) (A) (A) (A) (A) (A) (A) (A)
       Virtual   (A) (A) (A) (A) (A) (A) (A) (A) (A) (A) (A) (A)
                 (A) (A) (A) (A) (A) (A) (A) (A) (A) (A) (A) (A)
                 (A) (A) (A) (A) (A) (A) (A) (A) (A) (A) (A) (A)
                 (A) (A) (A) (A) (A) (A) (A) (A) (A) (A) (A) (A)
                 (A) (A) (A) (A) (A) (A) (A) (A) (A) (A) (A) (A)
                 (A) (A) (A) (A) (A) (A) (A) (A) (A) (A) (A) (A)
                 (A) (A) (A) (A) (A) (A) (A) (A) (A) (A) (A) (A)
                 (A) (A) (A) (A) (A) (A) (A) (A) (A) (A) (A) (A)
                 (A) (A) (A) (A) (A) (A) (A) (A) (A) (A) (A) (A)
                 (A) (A) (A) (A) (A) (A) (A) (A) (A) (A) (A) (A)
                 (A) (A) (A) (A) (A) (A) (A) (A) (A) (A) (A) (A)
                 (A) (A) (A) (A) (A) (A) (A) (A) (A) (A) (A) (A)
                 (A) (A) (A) (A) (A) (A) (A) (A) (A)
    24 initial guesses have been made.
 Convergence on wavefunction:    0.001000000000000
 Iteration     1 Dimension    24 NMult     0 NNew     24
 CISAX will form    24 AO SS matrices at one time.
 New state      1 was old state      2
 New state      2 was old state      1
 New state      3 was old state     12
 New state      4 was old state     16
 New state      5 was old state      3
 New state      6 was old state      4
 New state      7 was old state      5
 New state      8 was old state      6
 New state      9 was old state      8
 New state     10 was old state      7
 New state     11 was old state     10
 New state     12 was old state      9
 Vector   6 SDiff=7.33D+00 TDiff=2.35D+00 assumed to be triplet.
 Vector  12 SDiff=7.34D+00 TDiff=2.29D+00 assumed to be triplet.
 Iteration     2 Dimension    36 NMult    24 NNew     12
 New state      6 was old state      7
 Iteration     3 Dimension    48 NMult    36 NNew     12
 Iteration     4 Dimension    60 NMult    48 NNew     12
 Iteration     5 Dimension    68 NMult    60 NNew      8
 Iteration     6 Dimension    70 NMult    68 NNew      2
 ***********************************************************************
 Excited states from <AA,BB:AA,BB> singles matrix:
 ***********************************************************************
 
 Ground to excited state transition densities written to RWF  633
 Ground to excited state transition electric dipole moments (Au):
       state          X           Y           Z        Dip. S.      Osc.
         1         0.0000     -0.0000     -0.0000      0.0000      0.0000
         2         0.3448     -0.0415     -0.0034      0.1206      0.0063
         3        -0.0000      0.0000      0.0000      0.0000      0.0000
         4        -0.0000     -0.0000     -0.0000      0.0000      0.0000
         5         0.0088     -0.0509     -0.0018      0.0027      0.0002
         6        -0.0927     -0.0969      0.0269      0.0187      0.0017
 Ground to excited state transition velocity dipole moments (Au):
       state          X           Y           Z        Dip. S.      Osc.
         1        -0.0000      0.0000     -0.0000      0.0000      0.0000
         2        -0.0235     -0.0001     -0.0022      0.0006      0.0048
         3         0.0000     -0.0000     -0.0000      0.0000      0.0000
         4        -0.0000      0.0000      0.0000      0.0000      0.0000
         5         0.0001      0.0063     -0.0002      0.0000      0.0002
         6         0.0085      0.0121     -0.0047      0.0002      0.0012
 Ground to excited state transition magnetic dipole moments (Au):
       state          X           Y           Z
         1        -0.0000     -0.0000      0.0000
         2         0.0936      0.1992     -0.0722
         3        -0.0000      0.0000      0.0000
         4        -0.0000     -0.0000     -0.0000
         5        -0.0554     -0.1626     -0.2427
         6         0.1385      0.1810      0.3154
 Ground to excited state transition velocity quadrupole moments (Au):
       state          XX          YY          ZZ          XY          XZ          YZ
         1        -0.0000      0.0000     -0.0000      0.0000      0.0000     -0.0000
         2        -0.0062     -0.0141     -0.0269      0.0582     -0.0078      0.0062
         3        -0.0000     -0.0000     -0.0000     -0.0000     -0.0000      0.0000
         4        -0.0000      0.0000      0.0000      0.0000      0.0000     -0.0000
         5         0.0013      0.0544     -0.0127     -0.0142     -0.0002     -0.0096
         6        -0.0257      0.0817      0.0107      0.0157      0.0297     -0.0088
 <0|del|b> * <b|rxdel|0> + <0|del|b> * <b|delr+rdel|0>
 Rotatory Strengths (R) in cgs (10**-40 erg-esu-cm/Gauss)
       state          XX          YY          ZZ    R(velocity)    E-M Angle
         1        -0.0000      0.0000      0.0000     -0.0000       90.00
         2         0.0745     -9.3323     -9.3392     -6.1990      112.10
         3        -0.0000     -0.0000     -0.0000     -0.0000       90.00
         4        -0.0000     -0.0000      0.0000     -0.0000       90.00
         5        -2.6096      0.0693     -2.7328     -1.7577      122.06
         6         0.6854     -0.8059      9.7393      3.2063       71.89
 1/2[<0|r|b>*<b|rxdel|0> + (<0|rxdel|b>*<b|r|0>)*]
 Rotatory Strengths (R) in cgs (10**-40 erg-esu-cm/Gauss)
       state          XX          YY          ZZ     R(length)
         1         0.0000     -0.0000      0.0000     -0.0000
         2       -22.8188      5.8495     -0.1752     -5.7148
         3        -0.0000     -0.0000     -0.0000     -0.0000
         4        -0.0000     -0.0000     -0.0000     -0.0000
         5         0.3433     -5.8548     -0.3069     -1.9394
         6         9.0818     12.4096     -5.9926      5.1663
  1/2[<0|del|b>*<b|r|0> + (<0|r|b>*<b|del|0>)*] (Au)
       state          X           Y           Z        Dip. S.   Osc.(frdel)
         1        -0.0000     -0.0000      0.0000      0.0000      0.0000
         2        -0.0081      0.0000      0.0000      0.0081      0.0054
         3        -0.0000     -0.0000     -0.0000      0.0000      0.0000
         4         0.0000     -0.0000     -0.0000      0.0000      0.0000
         5         0.0000     -0.0003      0.0000      0.0003      0.0002
         6        -0.0008     -0.0012     -0.0001      0.0021      0.0014

 Excitation energies and oscillator strengths:
 
 Excited State   1:      Triplet-A      2.0930 eV  592.36 nm  f=0.0000  <S**2>=2.000
      81 -> 82         0.70625
 This state for optimization and/or second-order correction.
 Total Energy, E(TD-HF/TD-DFT) =  -1087.76593565    
 Copying the excited state density for this state as the 1-particle RhoCI density.
 
 Excited State   2:      Singlet-A      2.1324 eV  581.42 nm  f=0.0063  <S**2>=0.000
      81 -> 82         0.70682
 
 Excited State   3:      Triplet-A      2.8364 eV  437.12 nm  f=0.0000  <S**2>=2.000
      78 -> 86         0.14510
      81 -> 83         0.24611
      81 -> 84        -0.10303
      81 -> 85         0.63989
 
 Excited State   4:      Triplet-A      3.2226 eV  384.73 nm  f=0.0000  <S**2>=2.000
      77 -> 82         0.64258
      79 -> 82        -0.25684
      80 -> 82         0.12201
 
 Excited State   5:      Singlet-A      3.6555 eV  339.17 nm  f=0.0002  <S**2>=0.000
      77 -> 82         0.15859
      79 -> 82        -0.23081
      80 -> 82         0.64887
 
 Excited State   6:      Singlet-A      3.7608 eV  329.67 nm  f=0.0017  <S**2>=0.000
      77 -> 82        -0.25913
      79 -> 82         0.59591
      80 -> 82         0.27618
 SavETr:  write IOETrn=   770 NScale= 10 NData=  16 NLR=1 NState=    6 LETran=     118.

 **********************************************************************

            Population analysis using the SCF Density.

 **********************************************************************

 Orbital symmetries:
       Occupied  (A) (A) (A) (A) (A) (A) (A) (A) (A) (A) (A) (A)
                 (A) (A) (A) (A) (A) (A) (A) (A) (A) (A) (A) (A)
                 (A) (A) (A) (A) (A) (A) (A) (A) (A) (A) (A) (A)
                 (A) (A) (A) (A) (A) (A) (A) (A) (A) (A) (A) (A)
                 (A) (A) (A) (A) (A) (A) (A) (A) (A) (A) (A) (A)
                 (A) (A) (A) (A) (A) (A) (A) (A) (A) (A) (A) (A)
                 (A) (A) (A) (A) (A) (A) (A) (A) (A)
       Virtual   (A) (A) (A) (A) (A) (A) (A) (A) (A) (A) (A) (A)
                 (A) (A) (A) (A) (A) (A) (A) (A) (A) (A) (A) (A)
                 (A) (A) (A) (A) (A) (A) (A) (A) (A) (A) (A) (A)
                 (A) (A) (A) (A) (A) (A) (A) (A) (A) (A) (A) (A)
                 (A) (A) (A) (A) (A) (A) (A) (A) (A) (A) (A) (A)
                 (A) (A) (A) (A) (A) (A) (A) (A) (A) (A) (A) (A)
                 (A) (A) (A) (A) (A) (A) (A) (A) (A) (A) (A) (A)
                 (A) (A) (A) (A) (A) (A) (A) (A) (A) (A) (A) (A)
                 (A) (A) (A) (A) (A) (A) (A) (A) (A) (A) (A) (A)
                 (A) (A) (A) (A) (A) (A) (A) (A) (A) (A) (A) (A)
                 (A) (A) (A) (A) (A) (A) (A) (A) (A) (A) (A) (A)
                 (A) (A) (A) (A) (A) (A) (A) (A) (A) (A) (A) (A)
                 (A) (A) (A) (A) (A) (A) (A) (A) (A)
 The electronic state is 1-A.
 Alpha  occ. eigenvalues --  -24.74158 -24.74147 -24.74102 -19.18545 -14.36274
 Alpha  occ. eigenvalues --  -10.45316 -10.32245 -10.22550 -10.21842 -10.21452
 Alpha  occ. eigenvalues --  -10.21249 -10.20073 -10.19530 -10.19485 -10.19270
 Alpha  occ. eigenvalues --  -10.18440 -10.18364 -10.18177 -10.17911 -10.17806
 Alpha  occ. eigenvalues --  -10.17415 -10.17141  -1.31458  -1.23352  -1.22996
 Alpha  occ. eigenvalues --   -1.09460  -0.96198  -0.87045  -0.81496  -0.81064
 Alpha  occ. eigenvalues --   -0.78305  -0.76800  -0.75710  -0.72047  -0.71607
 Alpha  occ. eigenvalues --   -0.68920  -0.68512  -0.63821  -0.63458  -0.61903
 Alpha  occ. eigenvalues --   -0.59129  -0.58900  -0.57614  -0.56970  -0.52689
 Alpha  occ. eigenvalues --   -0.52360  -0.50183  -0.49711  -0.48360  -0.46855
 Alpha  occ. eigenvalues --   -0.46650  -0.46447  -0.45855  -0.45658  -0.44960
 Alpha  occ. eigenvalues --   -0.44672  -0.43256  -0.43216  -0.42642  -0.42279
 Alpha  occ. eigenvalues --   -0.42027  -0.41836  -0.41664  -0.41128  -0.41015
 Alpha  occ. eigenvalues --   -0.40603  -0.40401  -0.39447  -0.39036  -0.36923
 Alpha  occ. eigenvalues --   -0.36493  -0.35714  -0.34484  -0.33864  -0.33458
 Alpha  occ. eigenvalues --   -0.32185  -0.28905  -0.26155  -0.24077  -0.23312
 Alpha  occ. eigenvalues --   -0.17278
 Alpha virt. eigenvalues --   -0.07271  -0.00343   0.00191   0.01084   0.06511
 Alpha virt. eigenvalues --    0.08066   0.08622   0.10118   0.10645   0.11158
 Alpha virt. eigenvalues --    0.11697   0.12057   0.12595   0.12844   0.12993
 Alpha virt. eigenvalues --    0.13700   0.14220   0.15489   0.16032   0.16421
 Alpha virt. eigenvalues --    0.17272   0.17387   0.17668   0.18513   0.18573
 Alpha virt. eigenvalues --    0.19303   0.19944   0.21569   0.22503   0.23282
 Alpha virt. eigenvalues --    0.24434   0.24950   0.26182   0.26351   0.28402
 Alpha virt. eigenvalues --    0.30098   0.32600   0.34096   0.35289   0.35722
 Alpha virt. eigenvalues --    0.36907   0.38519   0.38945   0.41694   0.43751
 Alpha virt. eigenvalues --    0.47250   0.48948   0.50028   0.50772   0.51199
 Alpha virt. eigenvalues --    0.52257   0.53260   0.54203   0.54560   0.55117
 Alpha virt. eigenvalues --    0.55760   0.56330   0.57595   0.58134   0.58523
 Alpha virt. eigenvalues --    0.58969   0.60247   0.60675   0.61480   0.62256
 Alpha virt. eigenvalues --    0.62387   0.63245   0.63855   0.64718   0.66234
 Alpha virt. eigenvalues --    0.67687   0.67709   0.69243   0.70226   0.71745
 Alpha virt. eigenvalues --    0.72704   0.74106   0.74472   0.74920   0.75979
 Alpha virt. eigenvalues --    0.76471   0.77081   0.78055   0.79066   0.79896
 Alpha virt. eigenvalues --    0.80419   0.82322   0.84920   0.85463   0.85547
 Alpha virt. eigenvalues --    0.86418   0.87031   0.87445   0.88420   0.88983
 Alpha virt. eigenvalues --    0.91348   0.92268   0.92487   0.93408   0.93553
 Alpha virt. eigenvalues --    0.95066   0.95571   0.96347   0.96494   0.96670
 Alpha virt. eigenvalues --    0.97922   0.98269   0.99321   0.99851   1.02337
 Alpha virt. eigenvalues --    1.04084   1.05716   1.06030   1.08422   1.09187
 Alpha virt. eigenvalues --    1.10927   1.12303   1.14143   1.15306   1.16148
 Alpha virt. eigenvalues --    1.16993   1.17774   1.19101   1.19884   1.22041
 Alpha virt. eigenvalues --    1.23902   1.25502   1.27211   1.28041   1.29677
 Alpha virt. eigenvalues --    1.31491   1.31851   1.34871   1.35585   1.40754
 Alpha virt. eigenvalues --    1.43176   1.46202   1.46344   1.49552   1.50065
 Alpha virt. eigenvalues --    1.52118   1.52281   1.54610   1.56647   1.63113
 Alpha virt. eigenvalues --    1.69317   1.74628   1.85318   1.93447   1.95674
 Alpha virt. eigenvalues --    2.02529   2.15705   2.55026
          Condensed to atoms (all electrons):
               1          2          3          4          5          6
     1  C    5.163299   0.306140  -0.046073   0.005132  -0.000214   0.001199
     2  C    0.306140   4.779043   0.513314  -0.038717   0.005993  -0.030322
     3  C   -0.046073   0.513314   5.066209   0.502349  -0.046252  -0.045773
     4  C    0.005132  -0.038717   0.502349   4.905491   0.314211   0.486201
     5  C   -0.000214   0.005993  -0.046252   0.314211   5.167919  -0.051922
     6  C    0.001199  -0.030322  -0.045773   0.486201  -0.051922   5.009359
     7  C    0.000005   0.000040   0.008277  -0.069059  -0.007499   0.336737
     8  C   -0.000000   0.000029  -0.000039  -0.005526   0.001581  -0.019476
     9  N   -0.000000  -0.000000   0.000001   0.000161  -0.000175   0.003276
    10  C   -0.000000   0.000000  -0.000000  -0.000003   0.000000  -0.000063
    11  C    0.000000   0.000000   0.000000   0.000002   0.000040   0.000836
    12  C   -0.000000   0.000000   0.000000   0.000074   0.000025   0.006018
    13  C   -0.000000   0.000007  -0.000005  -0.001049  -0.001517  -0.043581
    14  C    0.005810  -0.034652  -0.049017  -0.038541   0.006664   0.505721
    15  C   -0.000253   0.005765   0.000785   0.006911  -0.000186  -0.034300
    16  C   -0.000003   0.000026   0.000036  -0.000156  -0.000000  -0.002092
    17  O    0.000000  -0.000058   0.000008  -0.000020  -0.000000  -0.000059
    18  C   -0.000000  -0.000000   0.000000   0.000002  -0.000000  -0.000059
    19  F   -0.000000  -0.000000   0.000000  -0.000000  -0.000000   0.000001
    20  F    0.000000  -0.000000  -0.000000   0.000000   0.000000   0.000000
    21  F   -0.000000  -0.000000   0.000000   0.000000   0.000000  -0.000002
    22  C   -0.040446   0.539208  -0.054345  -0.046986   0.000822  -0.041923
    23  H    0.366217  -0.033716  -0.002320   0.000273  -0.000000  -0.000002
    24  H    0.366736  -0.034662   0.002925  -0.000187   0.000002  -0.000013
    25  H    0.367165  -0.031981  -0.002788  -0.000093   0.000002   0.000019
    26  H   -0.005635  -0.043170   0.345036  -0.032612  -0.007235   0.004620
    27  H   -0.000002   0.000481  -0.001578  -0.035910   0.359797   0.004220
    28  H    0.000002  -0.000199   0.000696  -0.029718   0.364928  -0.006115
    29  H    0.000003  -0.000212  -0.000151  -0.031109   0.365239  -0.003949
    30  H   -0.000000  -0.000012  -0.000035   0.001048   0.000006  -0.002251
    31  H   -0.000000  -0.000000  -0.000000   0.000003  -0.000001  -0.000001
    32  H    0.000000   0.000000   0.000000  -0.000002   0.000002   0.000002
    33  H   -0.000000  -0.000000   0.000000   0.000000  -0.000000   0.000002
    34  H   -0.000000  -0.000000   0.000000   0.000000   0.000000  -0.000010
    35  H   -0.000000  -0.000000  -0.000000   0.000001  -0.000002  -0.000187
    36  H    0.000000  -0.000004   0.000025  -0.000809   0.000194  -0.001920
    37  H   -0.000000  -0.000013  -0.000091   0.003199  -0.001481  -0.002416
    38  H   -0.000000   0.000118  -0.000000  -0.000122   0.000002   0.000152
    39  H    0.000002  -0.000140  -0.000018   0.000637  -0.000007  -0.001619
    40  H   -0.006632  -0.032986   0.004979   0.000812   0.000010   0.003711
               7          8          9         10         11         12
     1  C    0.000005  -0.000000  -0.000000  -0.000000   0.000000  -0.000000
     2  C    0.000040   0.000029  -0.000000   0.000000   0.000000   0.000000
     3  C    0.008277  -0.000039   0.000001  -0.000000   0.000000   0.000000
     4  C   -0.069059  -0.005526   0.000161  -0.000003   0.000002   0.000074
     5  C   -0.007499   0.001581  -0.000175   0.000000   0.000040   0.000025
     6  C    0.336737  -0.019476   0.003276  -0.000063   0.000836   0.006018
     7  C    5.056724   0.615680  -0.038138   0.003975  -0.005070  -0.013217
     8  C    0.615680   4.832190   0.225950  -0.032014  -0.055549  -0.014495
     9  N   -0.038138   0.225950   7.235342   0.258562   0.258226  -0.050899
    10  C    0.003975  -0.032014   0.258562   4.916596  -0.032855   0.003849
    11  C   -0.005070  -0.055549   0.258226  -0.032855   4.735620   0.665689
    12  C   -0.013217  -0.014495  -0.050899   0.003849   0.665689   5.003989
    13  C    0.328062  -0.053222  -0.030418   0.000050  -0.045578   0.307697
    14  C   -0.066252  -0.002422   0.000099  -0.000000   0.000013   0.000150
    15  C   -0.024730  -0.004223  -0.000005   0.000001   0.000011  -0.000321
    16  C    0.001197   0.000184   0.000002  -0.000000  -0.000003  -0.000010
    17  O    0.000203   0.000007  -0.000000   0.000000   0.000000   0.000031
    18  C   -0.000048  -0.000003   0.000000   0.000000  -0.000000   0.000004
    19  F   -0.000001  -0.000001   0.000000   0.000000  -0.000000   0.000000
    20  F   -0.000000  -0.000000   0.000000  -0.000000   0.000000  -0.000000
    21  F   -0.000000  -0.000000   0.000000  -0.000000   0.000000  -0.000000
    22  C    0.008411   0.000035   0.000001  -0.000000   0.000000   0.000002
    23  H   -0.000000  -0.000000   0.000000  -0.000000   0.000000  -0.000000
    24  H   -0.000000  -0.000000   0.000000  -0.000000  -0.000000  -0.000000
    25  H   -0.000000   0.000000  -0.000000   0.000000  -0.000000   0.000000
    26  H   -0.000216  -0.000004  -0.000000   0.000000  -0.000000  -0.000000
    27  H    0.000681   0.000097  -0.000001  -0.000000  -0.000000   0.000001
    28  H    0.000674  -0.000217   0.000053  -0.000001   0.000004  -0.000313
    29  H    0.002610   0.002175  -0.000148   0.000005   0.000002   0.000009
    30  H   -0.040304   0.369399  -0.056390  -0.003358   0.003877  -0.000380
    31  H    0.000463  -0.000749  -0.043675   0.378254   0.002363  -0.000212
    32  H    0.000081   0.001292  -0.057063   0.371985   0.001449   0.000168
    33  H   -0.000207   0.002225  -0.043890   0.378721  -0.000933   0.000419
    34  H   -0.000417   0.004580  -0.059691  -0.003057   0.369386  -0.030678
    35  H    0.003105   0.000862   0.004511  -0.000133  -0.032595   0.358517
    36  H   -0.046428   0.000937   0.000733  -0.000002   0.000874  -0.042392
    37  H   -0.046179  -0.000953   0.001677   0.000022  -0.001251  -0.042146
    38  H    0.000226   0.000089  -0.000003   0.000000  -0.000001   0.000002
    39  H    0.018897   0.008577  -0.000732  -0.000008   0.000154   0.000509
    40  H   -0.000198  -0.000003  -0.000000   0.000000  -0.000000  -0.000000
              13         14         15         16         17         18
     1  C   -0.000000   0.005810  -0.000253  -0.000003   0.000000  -0.000000
     2  C    0.000007  -0.034652   0.005765   0.000026  -0.000058  -0.000000
     3  C   -0.000005  -0.049017   0.000785   0.000036   0.000008   0.000000
     4  C   -0.001049  -0.038541   0.006911  -0.000156  -0.000020   0.000002
     5  C   -0.001517   0.006664  -0.000186  -0.000000  -0.000000  -0.000000
     6  C   -0.043581   0.505721  -0.034300  -0.002092  -0.000059  -0.000059
     7  C    0.328062  -0.066252  -0.024730   0.001197   0.000203  -0.000048
     8  C   -0.053222  -0.002422  -0.004223   0.000184   0.000007  -0.000003
     9  N   -0.030418   0.000099  -0.000005   0.000002  -0.000000   0.000000
    10  C    0.000050  -0.000000   0.000001  -0.000000   0.000000   0.000000
    11  C   -0.045578   0.000013   0.000011  -0.000003   0.000000  -0.000000
    12  C    0.307697   0.000150  -0.000321  -0.000010   0.000031   0.000004
    13  C    5.150337  -0.002587   0.001906  -0.000473  -0.001542  -0.000064
    14  C   -0.002587   4.963326   0.238993  -0.029640   0.007808   0.004013
    15  C    0.001906   0.238993   5.807231   0.056167  -0.115993  -0.129082
    16  C   -0.000473  -0.029640   0.056167   5.316276   0.517312   0.019050
    17  O   -0.001542   0.007808  -0.115993   0.517312   8.017165  -0.082806
    18  C   -0.000064   0.004013  -0.129082   0.019050  -0.082806   4.854250
    19  F    0.000004   0.000360   0.009486  -0.048484   0.000976   0.187769
    20  F    0.000000  -0.000035   0.002625  -0.037670   0.000128   0.211303
    21  F   -0.000000  -0.000145   0.001911  -0.044267   0.000912   0.188262
    22  C   -0.000054   0.459728  -0.052001  -0.002583   0.000326   0.000156
    23  H    0.000000  -0.000211   0.000003   0.000000  -0.000000   0.000000
    24  H    0.000000   0.000375   0.000004   0.000001   0.000000  -0.000000
    25  H   -0.000000  -0.000159   0.000003  -0.000000   0.000000   0.000000
    26  H    0.000001   0.000743   0.000010   0.000000   0.000000   0.000000
    27  H    0.000026  -0.000166   0.000002   0.000000   0.000000   0.000000
    28  H    0.001066  -0.000029  -0.000003  -0.000000  -0.000000   0.000000
    29  H   -0.000019   0.000060   0.000009   0.000000   0.000000  -0.000000
    30  H    0.005398   0.000615   0.000191   0.000015   0.000000   0.000000
    31  H   -0.000004  -0.000003  -0.000003   0.000000   0.000000  -0.000000
    32  H    0.000015   0.000000   0.000000  -0.000000  -0.000000   0.000000
    33  H   -0.000001  -0.000000  -0.000000   0.000000   0.000000  -0.000000
    34  H    0.005288   0.000000  -0.000000   0.000000   0.000000  -0.000000
    35  H   -0.036719  -0.000001  -0.000003   0.000001   0.000000  -0.000000
    36  H    0.366985   0.002782   0.000136   0.002700   0.004884   0.000168
    37  H    0.359990  -0.000265  -0.000136  -0.000006   0.000030   0.000000
    38  H   -0.000013  -0.037369   0.352121  -0.034615   0.002146   0.004016
    39  H   -0.000237  -0.031412   0.334135  -0.030058   0.000349   0.002234
    40  H    0.000002  -0.039729  -0.005894   0.000585   0.000225  -0.000078
              19         20         21         22         23         24
     1  C   -0.000000   0.000000  -0.000000  -0.040446   0.366217   0.366736
     2  C   -0.000000  -0.000000  -0.000000   0.539208  -0.033716  -0.034662
     3  C    0.000000  -0.000000   0.000000  -0.054345  -0.002320   0.002925
     4  C   -0.000000   0.000000   0.000000  -0.046986   0.000273  -0.000187
     5  C   -0.000000   0.000000   0.000000   0.000822  -0.000000   0.000002
     6  C    0.000001   0.000000  -0.000002  -0.041923  -0.000002  -0.000013
     7  C   -0.000001  -0.000000  -0.000000   0.008411  -0.000000  -0.000000
     8  C   -0.000001  -0.000000  -0.000000   0.000035  -0.000000  -0.000000
     9  N    0.000000   0.000000   0.000000   0.000001   0.000000   0.000000
    10  C    0.000000  -0.000000  -0.000000  -0.000000  -0.000000  -0.000000
    11  C   -0.000000   0.000000   0.000000   0.000000   0.000000  -0.000000
    12  C    0.000000  -0.000000  -0.000000   0.000002  -0.000000  -0.000000
    13  C    0.000004   0.000000  -0.000000  -0.000054   0.000000   0.000000
    14  C    0.000360  -0.000035  -0.000145   0.459728  -0.000211   0.000375
    15  C    0.009486   0.002625   0.001911  -0.052001   0.000003   0.000004
    16  C   -0.048484  -0.037670  -0.044267  -0.002583   0.000000   0.000001
    17  O    0.000976   0.000128   0.000912   0.000326  -0.000000   0.000000
    18  C    0.187769   0.211303   0.188262   0.000156   0.000000  -0.000000
    19  F    9.205049  -0.042289  -0.041031  -0.000002   0.000000  -0.000000
    20  F   -0.042289   9.166522  -0.042247  -0.000000  -0.000000   0.000000
    21  F   -0.041031  -0.042247   9.205700   0.000007  -0.000000   0.000000
    22  C   -0.000002  -0.000000   0.000007   5.065586   0.001806  -0.002013
    23  H    0.000000  -0.000000  -0.000000   0.001806   0.579696  -0.029325
    24  H   -0.000000   0.000000   0.000000  -0.002013  -0.029325   0.577539
    25  H    0.000000  -0.000000  -0.000000  -0.001722  -0.032684  -0.030489
    26  H    0.000000  -0.000000   0.000000   0.005079   0.003201   0.000049
    27  H   -0.000000  -0.000000   0.000000  -0.000019   0.000001   0.000000
    28  H   -0.000000  -0.000000  -0.000000   0.000031   0.000000  -0.000000
    29  H    0.000000   0.000000   0.000000  -0.000000  -0.000000  -0.000000
    30  H    0.000000  -0.000000  -0.000000  -0.000031   0.000000   0.000000
    31  H    0.000000   0.000000  -0.000000   0.000000  -0.000000   0.000000
    32  H   -0.000000  -0.000000   0.000000  -0.000000   0.000000  -0.000000
    33  H   -0.000000   0.000000  -0.000000   0.000000   0.000000   0.000000
    34  H   -0.000000   0.000000   0.000000   0.000000   0.000000  -0.000000
    35  H    0.000000  -0.000000  -0.000000  -0.000000   0.000000   0.000000
    36  H   -0.000014  -0.000005   0.000000  -0.000154  -0.000000  -0.000000
    37  H    0.000000  -0.000000  -0.000000   0.000050  -0.000000  -0.000000
    38  H   -0.001313   0.000050   0.006277   0.000441  -0.000000  -0.000003
    39  H    0.004003   0.000031   0.000138   0.003070  -0.000000   0.000000
    40  H    0.000001   0.000000   0.000034   0.344255   0.000066   0.004899
              25         26         27         28         29         30
     1  C    0.367165  -0.005635  -0.000002   0.000002   0.000003  -0.000000
     2  C   -0.031981  -0.043170   0.000481  -0.000199  -0.000212  -0.000012
     3  C   -0.002788   0.345036  -0.001578   0.000696  -0.000151  -0.000035
     4  C   -0.000093  -0.032612  -0.035910  -0.029718  -0.031109   0.001048
     5  C    0.000002  -0.007235   0.359797   0.364928   0.365239   0.000006
     6  C    0.000019   0.004620   0.004220  -0.006115  -0.003949  -0.002251
     7  C   -0.000000  -0.000216   0.000681   0.000674   0.002610  -0.040304
     8  C    0.000000  -0.000004   0.000097  -0.000217   0.002175   0.369399
     9  N   -0.000000  -0.000000  -0.000001   0.000053  -0.000148  -0.056390
    10  C    0.000000   0.000000  -0.000000  -0.000001   0.000005  -0.003358
    11  C   -0.000000  -0.000000  -0.000000   0.000004   0.000002   0.003877
    12  C    0.000000  -0.000000   0.000001  -0.000313   0.000009  -0.000380
    13  C   -0.000000   0.000001   0.000026   0.001066  -0.000019   0.005398
    14  C   -0.000159   0.000743  -0.000166  -0.000029   0.000060   0.000615
    15  C    0.000003   0.000010   0.000002  -0.000003   0.000009   0.000191
    16  C   -0.000000   0.000000   0.000000  -0.000000   0.000000   0.000015
    17  O    0.000000   0.000000   0.000000  -0.000000   0.000000   0.000000
    18  C    0.000000   0.000000   0.000000   0.000000  -0.000000   0.000000
    19  F    0.000000   0.000000  -0.000000  -0.000000   0.000000   0.000000
    20  F   -0.000000  -0.000000  -0.000000  -0.000000   0.000000  -0.000000
    21  F   -0.000000   0.000000   0.000000  -0.000000   0.000000  -0.000000
    22  C   -0.001722   0.005079  -0.000019   0.000031  -0.000000  -0.000031
    23  H   -0.032684   0.003201   0.000001   0.000000  -0.000000   0.000000
    24  H   -0.030489   0.000049   0.000000  -0.000000  -0.000000   0.000000
    25  H    0.571042   0.000704  -0.000000  -0.000000   0.000000  -0.000000
    26  H    0.000704   0.606284   0.005929   0.000188   0.000168   0.000001
    27  H   -0.000000   0.005929   0.588700  -0.029839  -0.029724  -0.000001
    28  H   -0.000000   0.000188  -0.029839   0.570436  -0.033787   0.000038
    29  H    0.000000   0.000168  -0.029724  -0.033787   0.577035   0.000163
    30  H   -0.000000   0.000001  -0.000001   0.000038   0.000163   0.578402
    31  H    0.000000   0.000000  -0.000000   0.000000  -0.000001   0.004173
    32  H   -0.000000  -0.000000   0.000000  -0.000001   0.000009  -0.000059
    33  H   -0.000000  -0.000000  -0.000000   0.000000  -0.000000   0.000146
    34  H   -0.000000  -0.000000  -0.000000   0.000000  -0.000000  -0.000161
    35  H   -0.000000   0.000000   0.000000   0.000002  -0.000000   0.000010
    36  H    0.000000  -0.000000   0.000001  -0.000102   0.000007  -0.000159
    37  H    0.000000   0.000003  -0.000119   0.005051  -0.000130  -0.000104
    38  H    0.000000  -0.000000  -0.000000   0.000000  -0.000000  -0.000010
    39  H   -0.000000   0.000000  -0.000000   0.000002  -0.000002   0.000064
    40  H    0.000264  -0.000209  -0.000000  -0.000000  -0.000000   0.000001
              31         32         33         34         35         36
     1  C   -0.000000   0.000000  -0.000000  -0.000000  -0.000000   0.000000
     2  C   -0.000000   0.000000  -0.000000  -0.000000  -0.000000  -0.000004
     3  C   -0.000000   0.000000   0.000000   0.000000  -0.000000   0.000025
     4  C    0.000003  -0.000002   0.000000   0.000000   0.000001  -0.000809
     5  C   -0.000001   0.000002  -0.000000   0.000000  -0.000002   0.000194
     6  C   -0.000001   0.000002   0.000002  -0.000010  -0.000187  -0.001920
     7  C    0.000463   0.000081  -0.000207  -0.000417   0.003105  -0.046428
     8  C   -0.000749   0.001292   0.002225   0.004580   0.000862   0.000937
     9  N   -0.043675  -0.057063  -0.043890  -0.059691   0.004511   0.000733
    10  C    0.378254   0.371985   0.378721  -0.003057  -0.000133  -0.000002
    11  C    0.002363   0.001449  -0.000933   0.369386  -0.032595   0.000874
    12  C   -0.000212   0.000168   0.000419  -0.030678   0.358517  -0.042392
    13  C   -0.000004   0.000015  -0.000001   0.005288  -0.036719   0.366985
    14  C   -0.000003   0.000000  -0.000000   0.000000  -0.000001   0.002782
    15  C   -0.000003   0.000000  -0.000000  -0.000000  -0.000003   0.000136
    16  C    0.000000  -0.000000   0.000000   0.000000   0.000001   0.002700
    17  O    0.000000  -0.000000   0.000000   0.000000   0.000000   0.004884
    18  C   -0.000000   0.000000  -0.000000  -0.000000  -0.000000   0.000168
    19  F    0.000000  -0.000000  -0.000000  -0.000000   0.000000  -0.000014
    20  F    0.000000  -0.000000   0.000000   0.000000  -0.000000  -0.000005
    21  F   -0.000000   0.000000  -0.000000   0.000000  -0.000000   0.000000
    22  C    0.000000  -0.000000   0.000000   0.000000  -0.000000  -0.000154
    23  H   -0.000000   0.000000   0.000000   0.000000   0.000000  -0.000000
    24  H    0.000000  -0.000000   0.000000  -0.000000   0.000000  -0.000000
    25  H    0.000000  -0.000000  -0.000000  -0.000000  -0.000000   0.000000
    26  H    0.000000  -0.000000  -0.000000  -0.000000   0.000000  -0.000000
    27  H   -0.000000   0.000000  -0.000000  -0.000000   0.000000   0.000001
    28  H    0.000000  -0.000001   0.000000   0.000000   0.000002  -0.000102
    29  H   -0.000001   0.000009  -0.000000  -0.000000  -0.000000   0.000007
    30  H    0.004173  -0.000059   0.000146  -0.000161   0.000010  -0.000159
    31  H    0.571333  -0.042096  -0.023413   0.000125   0.000003  -0.000002
    32  H   -0.042096   0.614944  -0.042950  -0.000068  -0.000002   0.000002
    33  H   -0.023413  -0.042950   0.571163   0.003950   0.000000  -0.000002
    34  H    0.000125  -0.000068   0.003950   0.582576  -0.005204  -0.000145
    35  H    0.000003  -0.000002   0.000000  -0.005204   0.594636  -0.001861
    36  H   -0.000002   0.000002  -0.000002  -0.000145  -0.001861   0.623072
    37  H    0.000002  -0.000013   0.000002  -0.000099   0.000200  -0.054819
    38  H    0.000000  -0.000000  -0.000000  -0.000000  -0.000000   0.000051
    39  H    0.000015  -0.000001   0.000001   0.000002  -0.000001  -0.002304
    40  H   -0.000000   0.000000  -0.000000  -0.000000   0.000000   0.000003
              37         38         39         40
     1  C   -0.000000  -0.000000   0.000002  -0.006632
     2  C   -0.000013   0.000118  -0.000140  -0.032986
     3  C   -0.000091  -0.000000  -0.000018   0.004979
     4  C    0.003199  -0.000122   0.000637   0.000812
     5  C   -0.001481   0.000002  -0.000007   0.000010
     6  C   -0.002416   0.000152  -0.001619   0.003711
     7  C   -0.046179   0.000226   0.018897  -0.000198
     8  C   -0.000953   0.000089   0.008577  -0.000003
     9  N    0.001677  -0.000003  -0.000732  -0.000000
    10  C    0.000022   0.000000  -0.000008   0.000000
    11  C   -0.001251  -0.000001   0.000154  -0.000000
    12  C   -0.042146   0.000002   0.000509  -0.000000
    13  C    0.359990  -0.000013  -0.000237   0.000002
    14  C   -0.000265  -0.037369  -0.031412  -0.039729
    15  C   -0.000136   0.352121   0.334135  -0.005894
    16  C   -0.000006  -0.034615  -0.030058   0.000585
    17  O    0.000030   0.002146   0.000349   0.000225
    18  C    0.000000   0.004016   0.002234  -0.000078
    19  F    0.000000  -0.001313   0.004003   0.000001
    20  F   -0.000000   0.000050   0.000031   0.000000
    21  F   -0.000000   0.006277   0.000138   0.000034
    22  C    0.000050   0.000441   0.003070   0.344255
    23  H   -0.000000  -0.000000  -0.000000   0.000066
    24  H   -0.000000  -0.000003   0.000000   0.004899
    25  H    0.000000   0.000000  -0.000000   0.000264
    26  H    0.000003  -0.000000   0.000000  -0.000209
    27  H   -0.000119  -0.000000  -0.000000  -0.000000
    28  H    0.005051   0.000000   0.000002  -0.000000
    29  H   -0.000130  -0.000000  -0.000002  -0.000000
    30  H   -0.000104  -0.000010   0.000064   0.000001
    31  H    0.000002   0.000000   0.000015  -0.000000
    32  H   -0.000013  -0.000000  -0.000001   0.000000
    33  H    0.000002  -0.000000   0.000001  -0.000000
    34  H   -0.000099  -0.000000   0.000002  -0.000000
    35  H    0.000200  -0.000000  -0.000001   0.000000
    36  H   -0.054819   0.000051  -0.002304   0.000003
    37  H    0.639764  -0.000001   0.000195  -0.000000
    38  H   -0.000001   0.536914  -0.021134   0.002572
    39  H    0.000195  -0.021134   0.501205   0.000104
    40  H   -0.000000   0.002572   0.000104   0.603490
 Mulliken charges:
               1
     1  C   -0.482451
     2  C    0.130684
     3  C   -0.196152
     4  C    0.104112
     5  C   -0.470946
     6  C   -0.074018
     7  C   -0.028087
     8  C    0.123006
     9  N   -0.607366
    10  C   -0.240529
    11  C    0.135289
    12  C   -0.152092
    13  C   -0.309753
    14  C    0.135374
    15  C   -0.451271
    16  C    0.316510
    17  O   -0.352035
    18  C    0.740912
    19  F   -0.274516
    20  F   -0.258413
    21  F   -0.275549
    22  C   -0.186734
    23  H    0.146996
    24  H    0.144161
    25  H    0.160715
    26  H    0.117066
    27  H    0.137425
    28  H    0.157154
    29  H    0.151741
    30  H    0.139710
    31  H    0.153426
    32  H    0.152306
    33  H    0.154768
    34  H    0.133624
    35  H    0.114857
    36  H    0.147568
    37  H    0.140036
    38  H    0.189403
    39  H    0.213350
    40  H    0.119716
 Sum of Mulliken charges =  -0.00000
 Mulliken charges with hydrogens summed into heavy atoms:
               1
     1  C   -0.030578
     2  C    0.130684
     3  C   -0.079086
     4  C    0.104112
     5  C   -0.024625
     6  C   -0.074018
     7  C   -0.028087
     8  C    0.262717
     9  N   -0.607366
    10  C    0.219971
    11  C    0.268913
    12  C   -0.037235
    13  C   -0.022149
    14  C    0.135374
    15  C   -0.048518
    16  C    0.316510
    17  O   -0.352035
    18  C    0.740912
    19  F   -0.274516
    20  F   -0.258413
    21  F   -0.275549
    22  C   -0.067018
 Electronic spatial extent (au):  <R**2>=           7481.3810
 Charge=             -0.0000 electrons
 Dipole moment (field-independent basis, Debye):
    X=              3.7960    Y=              0.4556    Z=             -2.6912  Tot=              4.6755
 Quadrupole moment (field-independent basis, Debye-Ang):
   XX=           -126.9327   YY=           -118.5681   ZZ=           -128.4704
   XY=            -10.3979   XZ=              0.0297   YZ=              1.3935
 Traceless Quadrupole moment (field-independent basis, Debye-Ang):
   XX=             -2.2756   YY=              6.0890   ZZ=             -3.8133
   XY=            -10.3979   XZ=              0.0297   YZ=              1.3935
 Octapole moment (field-independent basis, Debye-Ang**2):
  XXX=            -11.0734  YYY=            -18.0018  ZZZ=            -12.9032  XYY=              7.2430
  XXY=            -15.7047  XXZ=            -28.6446  XZZ=             -2.6501  YZZ=            -26.3055
  YYZ=             -0.7516  XYZ=             15.2934
 Hexadecapole moment (field-independent basis, Debye-Ang**3):
 XXXX=          -4535.9192 YYYY=          -3938.4976 ZZZZ=           -787.3426 XXXY=            -32.4541
 XXXZ=            -71.1244 YYYX=             -3.6381 YYYZ=             20.6533 ZZZX=             -6.4368
 ZZZY=             19.2873 XXYY=          -1350.5080 XXZZ=           -883.5544 YYZZ=           -829.5314
 XXYZ=             53.6500 YYXZ=            -12.1229 ZZXY=              5.8720
 N-N= 1.825596752282D+03 E-N=-6.196391017637D+03  KE= 1.082047011892D+03
 Unable to Open any file for archive entry.
 1\1\GINC-N2\SP\RB3LYP TD-FC\6-31G\C17H18F3N1O1\HPCMGAC13\13-Jun-2025\0
 \\# td=(50-50,nstates=3) b3lyp/6-31g\\[No Title]\\0,1\C,0,1.078807,4.9
 10841,0.414246\C,0,0.382148,3.574135,0.286001\C,0,-0.95843,3.496553,-0
 .121819\C,0,-1.619969,2.271549,-0.274494\C,0,-3.071476,2.25463,-0.7065
 74\C,0,-0.924711,1.063382,-0.007918\C,0,-1.606504,-0.255771,-0.204789\
 C,0,-2.293841,-0.843304,0.800894\N,0,-2.924912,-2.086733,0.692119\C,0,
 -3.822491,-2.563282,1.739208\C,0,-2.818206,-2.770371,-0.528142\C,0,-2.
 160423,-2.271369,-1.589922\C,0,-1.502265,-0.906232,-1.586154\C,0,0.424
 991,1.132786,0.403766\C,0,1.216828,-0.119896,0.713288\C,0,2.198828,-0.
 526151,-0.359027\O,0,2.24511,-0.099733,-1.512303\C,0,3.220482,-1.58925
 7,0.087991\F,0,2.569244,-2.68513,0.649429\F,0,4.008612,-2.0401,-0.9418
 27\F,0,4.054909,-1.062447,1.07402\C,0,1.055465,2.377919,0.551525\H,0,0
 .415839,5.669424,0.845584\H,0,1.968485,4.839235,1.048321\H,0,1.40437,5
 .28433,-0.566047\H,0,-1.503865,4.415203,-0.324109\H,0,-3.424395,3.2679
 7,-0.921545\H,0,-3.219151,1.648986,-1.608445\H,0,-3.719308,1.827968,0.
 068017\H,0,-2.377202,-0.372275,1.775291\H,0,-3.467177,-2.219133,2.7152
 43\H,0,-4.856863,-2.21261,1.604874\H,0,-3.829406,-3.657545,1.750063\H,
 0,-3.289722,-3.746764,-0.54746\H,0,-2.088468,-2.87184,-2.490953\H,0,-0
 .443731,-0.978954,-1.887143\H,0,-1.95395,-0.247746,-2.351613\H,0,1.775
 597,-0.00844,1.652928\H,0,0.540111,-0.972927,0.868862\H,0,2.092046,2.4
 1224,0.878652\\Version=ES64L-G16RevC.02\State=1-A\HF=-1087.8428537\RMS
 D=9.846e-09\PG=C01 [X(C17H18F3N1O1)]\\@
 The archive entry for this job was punched.


 HE WHO LAUGHS LAST PROBABLY DIDN'T GET THE JOKE.
 Job cpu time:       0 days  0 hours 20 minutes 50.0 seconds.
 Elapsed time:       0 days  0 hours  1 minutes 20.4 seconds.
 File lengths (MBytes):  RWF=    596 Int=      0 D2E=      0 Chk=     19 Scr=      2
 Normal termination of Gaussian 16 at Fri Jun 13 11:35:31 2025.
