 Entering Gaussian System, Link 0=g16
 Input=M2286.gjf
 Output=M2286.log
 Initial command:
 /hpc/softwares/Gaussian/g16/l1.exe "/hpc/home/hpcmgac13/pbs.11131.admin1.x8z/Gau-188839.inp" -scrdir="/hpc/home/hpcmgac13/pbs.11131.admin1.x8z/"
 Default linda workers: n2
 Default is to use  16 SMP processors on each worker.
 Entering Link 1 = /hpc/softwares/Gaussian/g16/l1.exe PID=    188840.
  
 Copyright (c) 1988-2021, Gaussian, Inc.  All Rights Reserved.
  
 This is part of the Gaussian(R) 16 program.  It is based on
 the Gaussian(R) 09 system (copyright 2009, Gaussian, Inc.),
 the Gaussian(R) 03 system (copyright 2003, Gaussian, Inc.),
 the Gaussian(R) 98 system (copyright 1998, Gaussian, Inc.),
 the Gaussian(R) 94 system (copyright 1995, Gaussian, Inc.),
 the Gaussian 92(TM) system (copyright 1992, Gaussian, Inc.),
 the Gaussian 90(TM) system (copyright 1990, Gaussian, Inc.),
 the Gaussian 88(TM) system (copyright 1988, Gaussian, Inc.),
 the Gaussian 86(TM) system (copyright 1986, Carnegie Mellon
 University), and the Gaussian 82(TM) system (copyright 1983,
 Carnegie Mellon University). Gaussian is a federally registered
 trademark of Gaussian, Inc.
  
 This software contains proprietary and confidential information,
 including trade secrets, belonging to Gaussian, Inc.
  
 This software is provided under written license and may be
 used, copied, transmitted, or stored only in accord with that
 written license.
  
 The following legend is applicable only to US Government
 contracts under FAR:
  
                    RESTRICTED RIGHTS LEGEND
  
 Use, reproduction and disclosure by the US Government is
 subject to restrictions as set forth in subparagraphs (a)
 and (c) of the Commercial Computer Software - Restricted
 Rights clause in FAR 52.227-19.
  
 Gaussian, Inc.
 340 Quinnipiac St., Bldg. 40, Wallingford CT 06492
  
  
 ---------------------------------------------------------------
 Warning -- This program may not be used in any manner that
 competes with the business of Gaussian, Inc. or will provide
 assistance to any competitor of Gaussian, Inc.  The licensee
 of this program is prohibited from giving any competitor of
 Gaussian, Inc. access to this program.  By using this program,
 the user acknowledges that Gaussian, Inc. is engaged in the
 business of creating and licensing software in the field of
 computational chemistry and represents and warrants to the
 licensee that it is not a competitor of Gaussian, Inc. and that
 it will not use this program in any manner prohibited above.
 ---------------------------------------------------------------
  

 Cite this work as:
 Gaussian 16, Revision C.02,
 M. J. Frisch, G. W. Trucks, H. B. Schlegel, G. E. Scuseria, 
 M. A. Robb, J. R. Cheeseman, G. Scalmani, V. Barone, 
 G. A. Petersson, H. Nakatsuji, X. Li, M. Caricato, A. V. Marenich, 
 J. Bloino, B. G. Janesko, R. Gomperts, B. Mennucci, H. P. Hratchian, 
 J. V. Ortiz, A. F. Izmaylov, J. L. Sonnenberg, D. Williams-Young, 
 F. Ding, F. Lipparini, F. Egidi, J. Goings, B. Peng, A. Petrone, 
 T. Henderson, D. Ranasinghe, V. G. Zakrzewski, J. Gao, N. Rega, 
 G. Zheng, W. Liang, M. Hada, M. Ehara, K. Toyota, R. Fukuda, 
 J. Hasegawa, M. Ishida, T. Nakajima, Y. Honda, O. Kitao, H. Nakai, 
 T. Vreven, K. Throssell, J. A. Montgomery, Jr., J. E. Peralta, 
 F. Ogliaro, M. J. Bearpark, J. J. Heyd, E. N. Brothers, K. N. Kudin, 
 V. N. Staroverov, T. A. Keith, R. Kobayashi, J. Normand, 
 K. Raghavachari, A. P. Rendell, J. C. Burant, S. S. Iyengar, 
 J. Tomasi, M. Cossi, J. M. Millam, M. Klene, C. Adamo, R. Cammi, 
 J. W. Ochterski, R. L. Martin, K. Morokuma, O. Farkas, 
 J. B. Foresman, and D. J. Fox, Gaussian, Inc., Wallingford CT, 2019.
 
 ******************************************
 Gaussian 16:  ES64L-G16RevC.02  7-Dec-2021
                13-Jun-2025 
 ******************************************
 SetLPE:    new flags="-opt 'Tsnet.Node.lindarsharg: ssh'  -nodelist 'n2.head.cm.mguif.local' -env GAUSS_MDEF=4294967296 -env GAUSS_EXEDIR="/hpc/softwares/Gaussian/g16/bsd:/hpc/softwares/Gaussian/g16""
 Will use up to    1 processors via Linda.
 ----------------------------------
 # td=(50-50,nstates=3) b3lyp/6-31g
 ----------------------------------
 1/38=1,172=1/1;
 2/12=2,17=6,18=5,40=1/2;
 3/5=1,6=6,11=9,25=1,30=1,74=-5/1,2,3,8;
 4//1;
 5/5=2,38=5/2;
 8/6=1,10=2,108=3/1;
 9/41=3,42=1,48=2,70=2/14;
 6/7=2,8=2,9=2,10=2/1;
 99/5=1,9=1/99;
 ----------
 [No Title]
 ----------
 Symbolic Z-matrix:
 Charge =  0 Multiplicity = 1
 C                    -4.81891  -1.15065  -0.0271 
 C                    -3.30988  -1.08592  -0.10602 
 C                    -2.51605  -2.17701   0.27069 
 C                    -1.11408  -2.13069   0.22887 
 C                    -0.31608  -3.3484    0.64814 
 C                    -0.46936  -0.94486  -0.20046 
 C                     1.02513  -0.89242  -0.30182 
 C                     1.79262  -0.60311   0.77469 
 N                     3.18771  -0.52253   0.7402 
 C                     3.96249  -0.40311   1.97216 
 C                     3.82534  -0.73743  -0.49007 
 C                     3.15681  -1.0485   -1.61501 
 C                     1.65365  -1.23504  -1.65516 
 C                    -1.26309   0.16186  -0.59212 
 C                    -0.62593   1.45749  -1.05677 
 C                    -0.20529   2.39722   0.13688 
 C                     0.51489   3.58248  -0.35843 
 N                     1.10272   4.49974  -0.78831 
 C                    -1.35543   2.79166   0.96625 
 N                    -2.28345   3.08589   1.61707 
 C                    -2.66177   0.07734  -0.54194 
 H                    -5.17517  -2.18584  -0.02504 
 H                    -5.18795  -0.67304   0.89044 
 H                    -5.28747  -0.63249  -0.87116 
 H                    -2.99951  -3.09267   0.6018 
 H                    -0.97464  -4.2089    0.8011 
 H                     0.43191  -3.62403  -0.10368 
 H                     0.22814  -3.17401   1.58418 
 H                     1.34828  -0.40955   1.74656 
 H                     3.39893   0.1774    2.70869 
 H                     4.20666  -1.37983   2.41514 
 H                     4.89786   0.12738   1.77012 
 H                     4.90245  -0.61417  -0.47431 
 H                     3.7131   -1.16835  -2.53882 
 H                     1.2056   -0.61468  -2.45157 
 H                     1.389    -2.27046  -1.94134 
 H                     0.28611   1.26864  -1.62919 
 H                    -1.31476   2.01369  -1.70006 
 H                     0.48823   1.81825   0.76293 
 H                    -3.25585   0.93553  -0.8451 
 
                          Input orientation:                          
 ---------------------------------------------------------------------
 Center     Atomic      Atomic             Coordinates (Angstroms)
 Number     Number       Type             X           Y           Z
 ---------------------------------------------------------------------
      1          6           0       -4.818910   -1.150646   -0.027100
      2          6           0       -3.309878   -1.085921   -0.106024
      3          6           0       -2.516053   -2.177012    0.270685
      4          6           0       -1.114079   -2.130692    0.228868
      5          6           0       -0.316083   -3.348395    0.648136
      6          6           0       -0.469358   -0.944858   -0.200462
      7          6           0        1.025131   -0.892415   -0.301823
      8          6           0        1.792617   -0.603107    0.774691
      9          7           0        3.187709   -0.522533    0.740196
     10          6           0        3.962487   -0.403107    1.972155
     11          6           0        3.825335   -0.737428   -0.490073
     12          6           0        3.156806   -1.048496   -1.615010
     13          6           0        1.653648   -1.235044   -1.655160
     14          6           0       -1.263087    0.161858   -0.592121
     15          6           0       -0.625931    1.457485   -1.056766
     16          6           0       -0.205288    2.397218    0.136879
     17          6           0        0.514885    3.582483   -0.358427
     18          7           0        1.102720    4.499735   -0.788308
     19          6           0       -1.355428    2.791655    0.966254
     20          7           0       -2.283453    3.085891    1.617074
     21          6           0       -2.661773    0.077335   -0.541938
     22          1           0       -5.175174   -2.185837   -0.025037
     23          1           0       -5.187948   -0.673042    0.890439
     24          1           0       -5.287467   -0.632491   -0.871161
     25          1           0       -2.999506   -3.092668    0.601800
     26          1           0       -0.974641   -4.208903    0.801101
     27          1           0        0.431909   -3.624027   -0.103678
     28          1           0        0.228142   -3.174006    1.584178
     29          1           0        1.348282   -0.409549    1.746558
     30          1           0        3.398925    0.177397    2.708694
     31          1           0        4.206664   -1.379834    2.415140
     32          1           0        4.897859    0.127380    1.770118
     33          1           0        4.902447   -0.614168   -0.474310
     34          1           0        3.713096   -1.168346   -2.538824
     35          1           0        1.205596   -0.614680   -2.451573
     36          1           0        1.388996   -2.270460   -1.941343
     37          1           0        0.286106    1.268639   -1.629185
     38          1           0       -1.314756    2.013693   -1.700061
     39          1           0        0.488227    1.818251    0.762933
     40          1           0       -3.255852    0.935530   -0.845102
 ---------------------------------------------------------------------
                    Distance matrix (angstroms):
                    1          2          3          4          5
     1  C    0.000000
     2  C    1.512480   0.000000
     3  C    2.538750   1.400909   0.000000
     4  C    3.840805   2.454635   1.403362   0.000000
     5  C    5.055838   3.827578   2.520808   1.515052   0.000000
     6  C    4.357867   2.845588   2.434983   1.416401   2.553547
     7  C    5.856191   4.343741   3.810241   2.528079   2.955184
     8  C    6.682436   5.200406   4.614741   3.328712   3.463992
     9  N    8.067789   6.576635   5.957402   4.620932   4.502280
    10  C    9.037077   7.594232   6.929157   5.638716   5.360402
    11  C    8.666491   7.154034   6.547088   5.182265   5.026332
    12  C    8.132892   6.640515   6.083644   4.776138   4.740498
    13  C    6.674707   5.201793   4.688559   3.465842   3.694762
    14  C    3.832205   2.445935   2.790102   2.439675   3.841475
    15  C    5.044168   3.817905   4.306304   3.842676   5.108736
    16  C    5.822348   4.672231   5.126511   4.619127   5.769378
    17  C    7.138743   6.040407   6.538666   5.969825   7.052712
    18  N    8.220216   7.150950   7.667851   7.064801   8.103673
    19  C    5.340805   4.472723   5.149613   4.983120   6.235515
    20  N    5.203854   4.628891   5.437372   5.523340   6.797751
    21  C    2.535002   1.401152   2.400765   2.804440   4.319047
    22  H    1.094782   2.166957   2.675529   4.069398   5.041376
    23  H    1.098259   2.165769   3.128105   4.377080   5.563389
    24  H    1.095659   2.168385   3.371957   4.568571   5.865071
    25  H    2.734446   2.150437   1.087102   2.149258   2.695979
    26  H    4.981692   4.003651   2.604971   2.160059   1.094336
    27  H    5.804703   4.521389   3.305220   2.175021   1.095760
    28  H    5.671238   4.442349   3.201541   2.174150   1.096707
    29  H    6.459825   5.058458   4.498357   3.365849   3.551543
    30  H    8.762481   7.384216   6.817191   5.643050   5.520724
    31  H    9.352970   7.933540   7.101345   5.801196   5.239540
    32  H    9.963882   8.506407   7.907251   6.604373   6.365929
    33  H    9.746414   8.234104   7.617850   6.244429   5.997411
    34  H    8.894054   7.432864   6.907463   5.646933   5.580646
    35  H    6.516134   5.110105   4.868495   3.855379   4.404191
    36  H    6.592147   5.181790   4.489010   3.315831   3.282475
    37  H    5.872036   4.560162   4.830540   4.119263   5.183225
    38  H    5.009085   4.016102   4.784241   4.575693   5.938296
    39  H    6.132227   4.859517   5.022961   4.294969   5.230136
    40  H    2.732107   2.153002   3.388245   3.891313   5.405924
                    6          7          8          9         10
     6  C    0.000000
     7  C    1.498840   0.000000
     8  C    2.486815   1.353372   0.000000
     9  N    3.799649   2.428860   1.397843   0.000000
    10  C    4.965381   3.746793   2.486414   1.460228   0.000000
    11  C    4.309442   2.810801   2.397835   1.402251   2.488604
    12  C    3.893681   2.508557   2.787482   2.413418   3.732747
    13  C    2.589886   1.530996   2.514524   2.932362   4.379529
    14  C    1.417118   2.536081   3.433755   4.696067   5.848190
    15  C    2.555195   2.969507   3.667376   4.657617   5.804287
    16  C    3.369422   3.539502   3.660653   4.516787   5.346065
    17  C    4.635785   4.504250   4.520588   5.020171   5.762161
    18  N    5.697419   5.414607   5.381256   5.648600   6.311599
    19  C    4.013462   4.565901   4.633713   5.628058   6.284788
    20  N    4.779259   5.518679   5.561714   6.612356   7.163167
    21  C    2.442983   3.819860   4.694476   6.018318   7.101571
    22  H    4.869857   6.339821   7.189903   8.560956   9.521751
    23  H    4.850674   6.330242   6.981875   8.378356   9.218104
    24  H    4.874586   6.343548   7.268926   8.627698   9.679809
    25  H    3.414434   4.674971   5.402985   6.701222   7.588212
    26  H    3.451439   4.026738   4.545347   5.560413   6.342766
    27  H    2.828356   2.802299   3.427684   4.233890   5.210412
    28  H    2.939481   3.065591   3.116468   4.062222   4.666234
    29  H    2.716847   2.129190   1.086013   2.099767   2.623929
    30  H    4.968527   3.980277   2.632447   2.099881   1.094110
    31  H    5.375478   4.212080   3.020265   2.139783   1.099934
    32  H    5.817207   4.508985   3.341708   2.099462   1.094146
    33  H    5.388937   3.891112   3.351294   2.103271   2.629308
    34  H    4.796958   3.507915   3.871320   3.383058   4.582218
    35  H    2.825241   2.175116   3.279254   3.758278   5.216760
    36  H    2.870778   2.172425   3.212447   3.671685   5.042354
    37  H    2.740720   2.641629   3.398769   4.152296   5.411115
    38  H    3.422940   3.984420   4.756869   5.714848   6.868434
    39  H    3.078940   2.961365   2.750372   3.573092   4.297340
    40  H    3.422860   4.686507   5.520704   6.794012   7.863416
                   11         12         13         14         15
    11  C    0.000000
    12  C    1.345057   0.000000
    13  C    2.514214   1.515221   0.000000
    14  C    5.168285   4.695393   3.404222   0.000000
    15  C    4.995253   4.571726   3.578305   1.516744   0.000000
    16  C    5.144414   5.123059   4.456498   2.578219   1.576333
    17  C    5.444083   5.477656   5.117310   3.862185   2.510927
    18  N    5.910114   5.973740   5.826032   4.944968   3.509357
    19  C    6.435497   6.462967   5.669273   3.058250   2.530768
    20  N    7.508337   7.558832   6.699161   3.804163   3.542387
    21  C    6.538280   6.022860   4.645908   1.402136   2.512870
    22  H    9.128160   8.558239   7.084781   4.597573   5.918942
    23  H    9.118620   8.720846   7.321431   4.277800   5.398403
    24  H    9.121371   8.487174   7.011191   4.111507   5.111983
    25  H    7.301904   6.855149   5.495132   3.877182   5.393384
    26  H    6.062841   5.735383   4.667436   4.596501   5.973376
    27  H    4.471811   4.042592   3.099513   4.176663   5.277231
    28  H    4.814481   4.830080   4.035462   4.253002   5.399512
    29  H    3.353478   3.870291   3.513741   3.551785   3.904095
    30  H    3.354227   4.500650   4.907566   5.712265   5.658337
    31  H    2.999727   4.177810   4.806891   6.429511   6.592305
    32  H    2.647010   3.984099   4.910563   6.598380   6.346078
    33  H    1.084256   2.130047   3.512063   6.215296   5.932450
    34  H    2.096585   1.085014   2.242016   5.506495   5.283809
    35  H    3.274993   2.166854   1.104480   3.186686   3.097393
    36  H    3.223681   2.173670   1.106358   3.843191   4.328970
    37  H    4.224692   3.689205   2.852941   2.168056   1.093224
    38  H    5.954265   5.420249   4.400878   2.158586   1.094384
    39  H    4.386093   4.581939   4.065463   2.765305   2.163979
    40  H    7.284782   6.756575   5.428699   2.152598   2.689558
                   16         17         18         19         20
    16  C    0.000000
    17  C    1.472695   0.000000
    18  N    2.643375   1.171195   0.000000
    19  C    1.471824   2.424512   3.469657   0.000000
    20  N    2.642729   3.461200   4.387594   1.171056   0.000000
    21  C    3.446298   4.734015   5.812893   3.368785   3.722347
    22  H    6.762424   8.109343   9.202794   6.352050   6.232952
    23  H    5.900953   7.224366   8.315547   5.167019   4.805587
    24  H    6.001985   7.190006   8.196408   5.528273   5.389042
    25  H    6.177593   7.604645   8.741009   6.120545   6.302230
    26  H    6.683856   8.016788   9.092966   7.012852   7.456059
    27  H    6.059643   7.211489   8.180111   6.745391   7.440240
    28  H    5.772441   7.036056   8.079596   6.203115   6.745035
    29  H    3.589232   4.589317   5.530544   4.262233   5.042258
    30  H    4.952998   5.414751   6.015329   5.698624   6.476140
    31  H    6.238743   6.778384   7.380100   7.101933   7.918411
    32  H    5.819084   5.973182   6.329780   6.844571   7.768362
    33  H    5.960785   6.072562   6.378756   7.268828   8.348741
    34  H    5.935180   6.128055   6.481166   7.325102   8.445627
    35  H    4.214523   4.740730   5.379059   5.462921   6.513185
    36  H    5.352379   6.125899   6.873644   6.450658   7.405384
    37  H    2.152705   2.649724   3.437137   3.427902   4.521420
    38  H    2.179991   2.758382   3.585511   2.777790   3.618199
    39  H    1.099140   2.090616   3.158213   2.094736   3.165230
    40  H    3.522323   4.632674   5.630625   3.215248   3.410560
                   21         22         23         24         25
    21  C    0.000000
    22  H    3.421450   0.000000
    23  H    2.999388   1.768278   0.000000
    24  H    2.739801   1.772405   1.764875   0.000000
    25  H    3.386904   2.439016   3.275238   3.668358   0.000000
    26  H    4.798125   4.734953   5.501114   5.847021   2.320728
    27  H    4.843864   5.789124   6.424903   6.499968   3.543254
    28  H    4.841817   5.723799   6.005841   6.550567   3.374818
    29  H    4.642716   6.989222   6.597323   7.136899   5.235729
    30  H    6.878131   9.304479   8.818372   9.429989   7.488140
    31  H    7.618601   9.727435   9.543742  10.074563   7.625673
    32  H    7.905450  10.489974  10.155689  10.549627   8.608255
    33  H    7.596063  10.209331  10.182440  10.197655   8.351158
    34  H    6.795457   9.292780   9.551636   9.169426   7.656733
    35  H    4.368310   7.005058   7.214559   6.682656   5.757291
    36  H    4.886635   6.838693   7.336684   6.957254   5.138341
    37  H    3.360253   6.658249   6.331185   5.937475   5.898605
    38  H    2.627772   5.945131   5.378741   4.844770   5.849091
    39  H    3.828313   6.980525   6.200142   6.483444   6.025560
    40  H    1.086893   3.754895   3.054931   2.566482   4.287845
                   26         27         28         29         30
    26  H    0.000000
    27  H    1.771747   0.000000
    28  H    1.769437   1.758664   0.000000
    29  H    4.552466   3.820469   2.987190   0.000000
    30  H    6.481251   5.582423   4.748716   2.339946   0.000000
    31  H    6.120022   5.062571   4.442768   3.091731   1.778647
    32  H    7.364007   6.126082   5.721886   3.590034   1.769246
    33  H    7.006351   5.402067   5.713079   4.195976   3.608139
    34  H    6.509606   4.767231   5.759056   4.953041   5.426433
    35  H    5.315239   3.894531   4.877792   4.205561   5.662723
    36  H    4.106743   2.474908   3.820115   4.131012   5.626248
    37  H    6.123662   5.127047   5.483261   3.916653   5.449555
    38  H    6.715072   6.114177   6.330796   4.984281   6.710283
    39  H    6.202260   5.511132   5.066036   2.582693   3.866594
    40  H    5.863369   5.910909   5.909983   5.451971   7.582235
                   31         32         33         34         35
    31  H    0.000000
    32  H    1.779185   0.000000
    33  H    3.069085   2.363762   0.000000
    34  H    4.982981   4.652908   2.446199   0.000000
    35  H    5.768602   5.657396   4.192407   2.569380   0.000000
    36  H    5.264163   5.642402   4.152087   2.640659   1.742291
    37  H    6.224287   5.841746   5.117549   4.302395   2.251372
    38  H    7.677043   7.361855   6.860155   6.009009   3.718237
    39  H    5.175356   4.828905   5.189679   5.497376   4.094731
    40  H    8.466359   8.600900   8.312454   7.474037   4.988829
                   36         37         38         39         40
    36  H    0.000000
    37  H    3.720085   0.000000
    38  H    5.071731   1.767169   0.000000
    39  H    4.984180   2.462753   3.058641   0.000000
    40  H    5.749324   3.642968   2.379337   4.169305   0.000000
 Stoichiometry    C18H19N3
 Framework group  C1[X(C18H19N3)]
 Deg. of freedom   114
 Full point group                 C1      NOp   1
 Largest Abelian subgroup         C1      NOp   1
 Largest concise Abelian subgroup C1      NOp   1
                         Standard orientation:                         
 ---------------------------------------------------------------------
 Center     Atomic      Atomic             Coordinates (Angstroms)
 Number     Number       Type             X           Y           Z
 ---------------------------------------------------------------------
      1          6           0       -4.818910   -1.150647   -0.027100
      2          6           0       -3.309878   -1.085921   -0.106024
      3          6           0       -2.516053   -2.177012    0.270685
      4          6           0       -1.114079   -2.130692    0.228868
      5          6           0       -0.316083   -3.348395    0.648136
      6          6           0       -0.469358   -0.944858   -0.200462
      7          6           0        1.025131   -0.892415   -0.301823
      8          6           0        1.792617   -0.603107    0.774691
      9          7           0        3.187709   -0.522533    0.740196
     10          6           0        3.962487   -0.403107    1.972155
     11          6           0        3.825335   -0.737428   -0.490073
     12          6           0        3.156806   -1.048496   -1.615010
     13          6           0        1.653648   -1.235044   -1.655160
     14          6           0       -1.263087    0.161858   -0.592121
     15          6           0       -0.625931    1.457485   -1.056766
     16          6           0       -0.205288    2.397218    0.136879
     17          6           0        0.514885    3.582483   -0.358427
     18          7           0        1.102720    4.499735   -0.788308
     19          6           0       -1.355428    2.791655    0.966254
     20          7           0       -2.283453    3.085891    1.617074
     21          6           0       -2.661773    0.077335   -0.541938
     22          1           0       -5.175174   -2.185838   -0.025037
     23          1           0       -5.187948   -0.673043    0.890439
     24          1           0       -5.287467   -0.632492   -0.871161
     25          1           0       -2.999506   -3.092668    0.601800
     26          1           0       -0.974640   -4.208903    0.801101
     27          1           0        0.431909   -3.624027   -0.103678
     28          1           0        0.228142   -3.174006    1.584178
     29          1           0        1.348282   -0.409549    1.746558
     30          1           0        3.398925    0.177397    2.708694
     31          1           0        4.206664   -1.379834    2.415140
     32          1           0        4.897859    0.127380    1.770118
     33          1           0        4.902447   -0.614168   -0.474310
     34          1           0        3.713096   -1.168346   -2.538824
     35          1           0        1.205596   -0.614680   -2.451573
     36          1           0        1.388996   -2.270460   -1.941343
     37          1           0        0.286106    1.268639   -1.629185
     38          1           0       -1.314756    2.013693   -1.700061
     39          1           0        0.488227    1.818251    0.762933
     40          1           0       -3.255852    0.935530   -0.845102
 ---------------------------------------------------------------------
 Rotational constants (GHZ):           0.3503510           0.2651379           0.1791903
 Standard basis: 6-31G (6D, 7F)
 There are   227 symmetry adapted cartesian basis functions of A   symmetry.
 There are   227 symmetry adapted basis functions of A   symmetry.
   227 basis functions,   538 primitive gaussians,   227 cartesian basis functions
    74 alpha electrons       74 beta electrons
       nuclear repulsion energy      1565.9006878770 Hartrees.
 NAtoms=   40 NActive=   40 NUniq=   40 SFac= 1.00D+00 NAtFMM=   60 NAOKFM=F Big=F
 Integral buffers will be    131072 words long.
 Regular integral format.
 Two-electron integral symmetry is turned on.
 One-electron integrals computed using PRISM.
 NBasis=   227 RedAO= T EigKep=  4.28D-04  NBF=   227
 NBsUse=   227 1.00D-06 EigRej= -1.00D+00 NBFU=   227
 ExpMin= 1.61D-01 ExpMax= 4.17D+03 ExpMxC= 6.27D+02 IAcc=3 IRadAn=         5 AccDes= 0.00D+00
 Harris functional with IExCor=  402 and IRadAn=       5 diagonalized for initial guess.
 HarFok:  IExCor=  402 AccDes= 0.00D+00 IRadAn=         5 IDoV= 1 UseB2=F ITyADJ=14
 ICtDFT=  3500011 ScaDFX=  1.000000  1.000000  1.000000  1.000000
 FoFCou: FMM=F IPFlag=           0 FMFlag=      100000 FMFlg1=           0
         NFxFlg=           0 DoJE=T BraDBF=F KetDBF=T FulRan=T
         wScrn=  0.000000 ICntrl=       500 IOpCl=  0 I1Cent=   200000004 NGrid=           0
         NMat0=    1 NMatS0=      1 NMatT0=    0 NMatD0=    1 NMtDS0=    0 NMtDT0=    0
 Petite list used in FoFCou.
 Requested convergence on RMS density matrix=1.00D-08 within 128 cycles.
 Requested convergence on MAX density matrix=1.00D-06.
 Requested convergence on             energy=1.00D-06.
 No special actions if energy rises.
 Integral accuracy reduced to 1.0D-05 until final iterations.
 Initial convergence to 1.0D-05 achieved.  Increase integral accuracy.
 SCF Done:  E(RB3LYP) =  -861.320011332     A.U. after   16 cycles
            NFock= 16  Conv=0.85D-08     -V/T= 2.0059
 DoSCS=F DFT=T ScalE2(SS,OS)=  1.000000  1.000000
 ExpMin= 1.61D-01 ExpMax= 4.17D+03 ExpMxC= 6.27D+02 IAcc=3 IRadAn=         5 AccDes= 0.00D+00
 HarFok:  IExCor=  205 AccDes= 0.00D+00 IRadAn=         5 IDoV=-2 UseB2=F ITyADJ=14
 ICtDFT= 12500011 ScaDFX=  1.000000  1.000000  1.000000  1.000000
 GSVD:  LWork=        -609 too small for GESVD, short by        2520 words or        2520 for optimal perf.
 Range of M.O.s used for correlation:    22   227
 NBasis=   227 NAE=    74 NBE=    74 NFC=    21 NFV=     0
 NROrb=    206 NOA=    53 NOB=    53 NVA=   153 NVB=   153

 **** Warning!!: The largest alpha MO coefficient is  0.14367503D+02

 Keep R1, R2, and R3 ints in memory in canonical form, NReq=1106259159.
 Orbital symmetries:
       Occupied  (A) (A) (A) (A) (A) (A) (A) (A) (A) (A) (A) (A)
                 (A) (A) (A) (A) (A) (A) (A) (A) (A) (A) (A) (A)
                 (A) (A) (A) (A) (A) (A) (A) (A) (A) (A) (A) (A)
                 (A) (A) (A) (A) (A) (A) (A) (A) (A) (A) (A) (A)
                 (A) (A) (A) (A) (A) (A) (A) (A) (A) (A) (A) (A)
                 (A) (A) (A) (A) (A) (A) (A) (A) (A) (A) (A) (A)
                 (A) (A)
       Virtual   (A) (A) (A) (A) (A) (A) (A) (A) (A) (A) (A) (A)
                 (A) (A) (A) (A) (A) (A) (A) (A) (A) (A) (A) (A)
                 (A) (A) (A) (A) (A) (A) (A) (A) (A) (A) (A) (A)
                 (A) (A) (A) (A) (A) (A) (A) (A) (A) (A) (A) (A)
                 (A) (A) (A) (A) (A) (A) (A) (A) (A) (A) (A) (A)
                 (A) (A) (A) (A) (A) (A) (A) (A) (A) (A) (A) (A)
                 (A) (A) (A) (A) (A) (A) (A) (A) (A) (A) (A) (A)
                 (A) (A) (A) (A) (A) (A) (A) (A) (A) (A) (A) (A)
                 (A) (A) (A) (A) (A) (A) (A) (A) (A) (A) (A) (A)
                 (A) (A) (A) (A) (A) (A) (A) (A) (A) (A) (A) (A)
                 (A) (A) (A) (A) (A) (A) (A) (A) (A) (A) (A) (A)
                 (A) (A) (A) (A) (A) (A) (A) (A) (A) (A) (A) (A)
                 (A) (A) (A) (A) (A) (A) (A) (A) (A)
    24 initial guesses have been made.
 Convergence on wavefunction:    0.001000000000000
 Iteration     1 Dimension    24 NMult     0 NNew     24
 CISAX will form    24 AO SS matrices at one time.
 New state      1 was old state      6
 New state      3 was old state      1
 New state      5 was old state      3
 New state      6 was old state      8
 New state      8 was old state     14
 New state      9 was old state     10
 New state     10 was old state      9
 New state     11 was old state     20
 New state     12 was old state      5
 Vector   6 SDiff=7.13D+00 TDiff=7.57D+00 assumed to be singlet.
 Vector  12 SDiff=7.12D+00 TDiff=7.45D+00 assumed to be singlet.
 Iteration     2 Dimension    36 NMult    24 NNew     12
 New state      4 was old state      8
 New state      6 was old state      7
 Iteration     3 Dimension    48 NMult    36 NNew     12
 Iteration     4 Dimension    60 NMult    48 NNew     12
 Iteration     5 Dimension    72 NMult    60 NNew     12
 Iteration     6 Dimension    80 NMult    72 NNew      8
 Iteration     7 Dimension    84 NMult    80 NNew      4
 Iteration     8 Dimension    86 NMult    84 NNew      2
 ***********************************************************************
 Excited states from <AA,BB:AA,BB> singles matrix:
 ***********************************************************************
 
 Ground to excited state transition densities written to RWF  633
 Ground to excited state transition electric dipole moments (Au):
       state          X           Y           Z        Dip. S.      Osc.
         1         0.0000     -0.0000      0.0000      0.0000      0.0000
         2         0.0000      0.0000     -0.0000      0.0000      0.0000
         3         0.1717     -0.0650     -0.0456      0.0358      0.0034
         4        -0.0000     -0.0000      0.0000      0.0000      0.0000
         5        -0.3181     -0.0057      0.0084      0.1013      0.0101
         6         0.7604      0.0421     -0.1741      0.6102      0.0630
 Ground to excited state transition velocity dipole moments (Au):
       state          X           Y           Z        Dip. S.      Osc.
         1        -0.0000      0.0000      0.0000      0.0000      0.0000
         2         0.0000      0.0000      0.0000      0.0000      0.0000
         3        -0.0253      0.0175      0.0095      0.0010      0.0049
         4         0.0000      0.0000      0.0000      0.0000      0.0000
         5         0.0365     -0.0031      0.0053      0.0014      0.0061
         6        -0.1044     -0.0075      0.0275      0.0117      0.0504
 Ground to excited state transition magnetic dipole moments (Au):
       state          X           Y           Z
         1        -0.0000      0.0000     -0.0000
         2        -0.0000      0.0000     -0.0000
         3        -0.1168     -0.2911     -0.0041
         4        -0.0000      0.0000     -0.0000
         5         0.0028      0.0528      0.0027
         6         0.1221     -1.2512      0.0950
 Ground to excited state transition velocity quadrupole moments (Au):
       state          XX          YY          ZZ          XY          XZ          YZ
         1        -0.0000     -0.0000     -0.0000      0.0000      0.0000      0.0000
         2         0.0000      0.0000      0.0000      0.0000     -0.0000     -0.0000
         3        -0.0177      0.0096     -0.0606      0.0584      0.0277     -0.0159
         4         0.0000      0.0000     -0.0000     -0.0000      0.0000     -0.0000
         5         0.0642     -0.0453      0.0422     -0.0939     -0.0251      0.0292
         6        -0.2869      0.1085     -0.2275      0.2240      0.2905     -0.1257
 <0|del|b> * <b|rxdel|0> + <0|del|b> * <b|delr+rdel|0>
 Rotatory Strengths (R) in cgs (10**-40 erg-esu-cm/Gauss)
       state          XX          YY          ZZ    R(velocity)    E-M Angle
         1        -0.0000     -0.0000      0.0000     -0.0000       90.00
         2         0.0000     -0.0000     -0.0000      0.0000       90.00
         3       -12.7352      6.9510     -5.1632     -3.6491      102.44
         4        -0.0000     -0.0000      0.0000     -0.0000       90.00
         5        -1.7111      3.9783     -2.4945     -0.0757       90.00
         6        46.5902     -7.2616    -42.5473     -1.0729       90.30
 1/2[<0|r|b>*<b|rxdel|0> + (<0|rxdel|b>*<b|r|0>)*]
 Rotatory Strengths (R) in cgs (10**-40 erg-esu-cm/Gauss)
       state          XX          YY          ZZ     R(length)
         1         0.0000      0.0000      0.0000      0.0000
         2         0.0000     -0.0000     -0.0000     -0.0000
         3        14.1801    -13.3730     -0.1337      0.2245
         4        -0.0000      0.0000      0.0000     -0.0000
         5         0.6240      0.2122     -0.0160      0.2734
         6       -65.6650     37.2889     11.6898     -5.5621
  1/2[<0|del|b>*<b|r|0> + (<0|r|b>*<b|del|0>)*] (Au)
       state          X           Y           Z        Dip. S.   Osc.(frdel)
         1        -0.0000     -0.0000      0.0000      0.0000      0.0000
         2         0.0000      0.0000     -0.0000      0.0000      0.0000
         3        -0.0043     -0.0011     -0.0004      0.0059      0.0039
         4        -0.0000     -0.0000      0.0000      0.0000      0.0000
         5        -0.0116      0.0000      0.0000      0.0116      0.0077
         6        -0.0794     -0.0003     -0.0048      0.0845      0.0563

 Excitation energies and oscillator strengths:
 
 Excited State   1:      Triplet-A      2.8152 eV  440.42 nm  f=0.0000  <S**2>=2.000
      71 -> 82        -0.13689
      74 -> 76        -0.12979
      74 -> 77         0.50403
      74 -> 78        -0.39614
      74 -> 79         0.20819
 This state for optimization and/or second-order correction.
 Total Energy, E(TD-HF/TD-DFT) =  -861.216555974    
 Copying the excited state density for this state as the 1-particle RhoCI density.
 
 Excited State   2:      Triplet-A      3.6076 eV  343.68 nm  f=0.0000  <S**2>=2.000
      72 -> 75         0.35664
      72 -> 78        -0.16531
      72 -> 79        -0.11828
      73 -> 75        -0.22207
      73 -> 76         0.39300
      73 -> 78        -0.18633
      74 -> 75        -0.21535
 
 Excited State   3:      Singlet-A      3.8213 eV  324.46 nm  f=0.0034  <S**2>=0.000
      74 -> 75         0.68000
      74 -> 76        -0.18377
 
 Excited State   4:      Triplet-A      3.8299 eV  323.73 nm  f=0.0000  <S**2>=2.000
      72 -> 75         0.11765
      73 -> 76         0.15228
      74 -> 75         0.63902
      74 -> 76        -0.13645
 
 Excited State   5:      Singlet-A      4.0600 eV  305.38 nm  f=0.0101  <S**2>=0.000
      74 -> 75         0.18416
      74 -> 76         0.65970
      74 -> 77        -0.11308
      74 -> 78        -0.12549
 
 Excited State   6:      Singlet-A      4.2131 eV  294.28 nm  f=0.0630  <S**2>=0.000
      74 -> 77         0.60377
      74 -> 78        -0.35287
 SavETr:  write IOETrn=   770 NScale= 10 NData=  16 NLR=1 NState=    6 LETran=     118.

 **********************************************************************

            Population analysis using the SCF Density.

 **********************************************************************

 Orbital symmetries:
       Occupied  (A) (A) (A) (A) (A) (A) (A) (A) (A) (A) (A) (A)
                 (A) (A) (A) (A) (A) (A) (A) (A) (A) (A) (A) (A)
                 (A) (A) (A) (A) (A) (A) (A) (A) (A) (A) (A) (A)
                 (A) (A) (A) (A) (A) (A) (A) (A) (A) (A) (A) (A)
                 (A) (A) (A) (A) (A) (A) (A) (A) (A) (A) (A) (A)
                 (A) (A) (A) (A) (A) (A) (A) (A) (A) (A) (A) (A)
                 (A) (A)
       Virtual   (A) (A) (A) (A) (A) (A) (A) (A) (A) (A) (A) (A)
                 (A) (A) (A) (A) (A) (A) (A) (A) (A) (A) (A) (A)
                 (A) (A) (A) (A) (A) (A) (A) (A) (A) (A) (A) (A)
                 (A) (A) (A) (A) (A) (A) (A) (A) (A) (A) (A) (A)
                 (A) (A) (A) (A) (A) (A) (A) (A) (A) (A) (A) (A)
                 (A) (A) (A) (A) (A) (A) (A) (A) (A) (A) (A) (A)
                 (A) (A) (A) (A) (A) (A) (A) (A) (A) (A) (A) (A)
                 (A) (A) (A) (A) (A) (A) (A) (A) (A) (A) (A) (A)
                 (A) (A) (A) (A) (A) (A) (A) (A) (A) (A) (A) (A)
                 (A) (A) (A) (A) (A) (A) (A) (A) (A) (A) (A) (A)
                 (A) (A) (A) (A) (A) (A) (A) (A) (A) (A) (A) (A)
                 (A) (A) (A) (A) (A) (A) (A) (A) (A) (A) (A) (A)
                 (A) (A) (A) (A) (A) (A) (A) (A) (A)
 The electronic state is 1-A.
 Alpha  occ. eigenvalues --  -14.37067 -14.36405 -14.36264 -10.28572 -10.24969
 Alpha  occ. eigenvalues --  -10.24860 -10.23110 -10.22760 -10.22184 -10.22122
 Alpha  occ. eigenvalues --  -10.20530 -10.20153 -10.19981 -10.19964 -10.19521
 Alpha  occ. eigenvalues --  -10.19310 -10.18672 -10.18507 -10.18023 -10.18008
 Alpha  occ. eigenvalues --  -10.17905  -0.96985  -0.94635  -0.93617  -0.87851
 Alpha  occ. eigenvalues --   -0.84548  -0.81994  -0.78961  -0.78011  -0.76486
 Alpha  occ. eigenvalues --   -0.72709  -0.70532  -0.69216  -0.68587  -0.64547
 Alpha  occ. eigenvalues --   -0.62727  -0.59554  -0.58189  -0.56936  -0.53650
 Alpha  occ. eigenvalues --   -0.53270  -0.50809  -0.49280  -0.48845  -0.47058
 Alpha  occ. eigenvalues --   -0.46488  -0.46340  -0.44075  -0.43971  -0.42989
 Alpha  occ. eigenvalues --   -0.42239  -0.41862  -0.41677  -0.41392  -0.41159
 Alpha  occ. eigenvalues --   -0.40972  -0.39819  -0.37662  -0.37437  -0.37370
 Alpha  occ. eigenvalues --   -0.36956  -0.36513  -0.35754  -0.35455  -0.35112
 Alpha  occ. eigenvalues --   -0.34507  -0.34300  -0.34020  -0.33163  -0.32697
 Alpha  occ. eigenvalues --   -0.26975  -0.24769  -0.23883  -0.18114
 Alpha virt. eigenvalues --   -0.01517  -0.00817  -0.00279  -0.00007   0.01292
 Alpha virt. eigenvalues --    0.02880   0.04450   0.05608   0.07129   0.08731
 Alpha virt. eigenvalues --    0.09775   0.10254   0.11002   0.11877   0.12107
 Alpha virt. eigenvalues --    0.12553   0.12857   0.13463   0.15305   0.15410
 Alpha virt. eigenvalues --    0.15495   0.16014   0.16383   0.17102   0.17717
 Alpha virt. eigenvalues --    0.18381   0.19037   0.19516   0.20029   0.20873
 Alpha virt. eigenvalues --    0.21752   0.23134   0.23341   0.24827   0.25003
 Alpha virt. eigenvalues --    0.26332   0.27125   0.27643   0.31936   0.33515
 Alpha virt. eigenvalues --    0.34313   0.35561   0.36900   0.37480   0.37794
 Alpha virt. eigenvalues --    0.40220   0.40976   0.43221   0.46983   0.49474
 Alpha virt. eigenvalues --    0.50036   0.50932   0.52222   0.52464   0.53066
 Alpha virt. eigenvalues --    0.53860   0.54979   0.55156   0.56248   0.56798
 Alpha virt. eigenvalues --    0.56945   0.57496   0.58073   0.58693   0.59796
 Alpha virt. eigenvalues --    0.60051   0.60878   0.61785   0.62268   0.62832
 Alpha virt. eigenvalues --    0.63379   0.65825   0.66302   0.66600   0.67139
 Alpha virt. eigenvalues --    0.67235   0.68284   0.69192   0.70303   0.71184
 Alpha virt. eigenvalues --    0.71506   0.72498   0.73814   0.74726   0.75269
 Alpha virt. eigenvalues --    0.75677   0.76110   0.76715   0.78078   0.78466
 Alpha virt. eigenvalues --    0.79324   0.81036   0.81578   0.82634   0.83579
 Alpha virt. eigenvalues --    0.84570   0.85054   0.85427   0.86238   0.86811
 Alpha virt. eigenvalues --    0.87543   0.88249   0.89474   0.90087   0.90340
 Alpha virt. eigenvalues --    0.92067   0.92781   0.93346   0.94323   0.94732
 Alpha virt. eigenvalues --    0.95661   0.95914   0.96213   0.96775   0.97471
 Alpha virt. eigenvalues --    0.97604   0.98399   0.98682   1.00287   1.01378
 Alpha virt. eigenvalues --    1.03549   1.03919   1.06730   1.07710   1.09175
 Alpha virt. eigenvalues --    1.10996   1.13580   1.14259   1.15602   1.16890
 Alpha virt. eigenvalues --    1.18384   1.22604   1.24693   1.27672   1.29465
 Alpha virt. eigenvalues --    1.30100   1.31520   1.35346   1.39805   1.44118
 Alpha virt. eigenvalues --    1.44496   1.47426   1.51896   1.52163   1.54776
 Alpha virt. eigenvalues --    1.58388   1.61630   1.68406   1.70981   1.78557
 Alpha virt. eigenvalues --    1.89486   1.95465   2.01472
          Condensed to atoms (all electrons):
               1          2          3          4          5          6
     1  C    5.159256   0.307465  -0.039375   0.005758  -0.000216   0.001101
     2  C    0.307465   4.786071   0.524601  -0.041731   0.006194  -0.028265
     3  C   -0.039375   0.524601   5.055431   0.495687  -0.044608  -0.047014
     4  C    0.005758  -0.041731   0.495687   4.908377   0.314165   0.497846
     5  C   -0.000216   0.006194  -0.044608   0.314165   5.163071  -0.053563
     6  C    0.001101  -0.028265  -0.047014   0.497846  -0.053563   5.034150
     7  C    0.000004   0.000019   0.008052  -0.071550  -0.006448   0.344345
     8  C   -0.000000   0.000032  -0.000013  -0.006448   0.002292  -0.016175
     9  N   -0.000000  -0.000000   0.000001   0.000210  -0.000225   0.002942
    10  C   -0.000000   0.000000  -0.000000  -0.000004   0.000000  -0.000055
    11  C    0.000000   0.000000   0.000000   0.000000   0.000040   0.000817
    12  C    0.000000   0.000000   0.000000   0.000066   0.000001   0.006268
    13  C   -0.000000   0.000004  -0.000017  -0.000817  -0.001314  -0.045639
    14  C    0.005263  -0.035623  -0.046522  -0.042805   0.006428   0.490698
    15  C   -0.000226   0.005371   0.000849   0.006139  -0.000180  -0.044361
    16  C   -0.000000   0.000001   0.000007  -0.000043   0.000002  -0.003340
    17  C   -0.000000   0.000001  -0.000000   0.000004  -0.000000   0.000221
    18  N   -0.000000   0.000000  -0.000000   0.000000  -0.000000   0.000002
    19  C   -0.000004  -0.000195  -0.000003   0.000011   0.000000  -0.001146
    20  N   -0.000005  -0.000086   0.000006   0.000002  -0.000000  -0.000046
    21  C   -0.046527   0.519241  -0.054931  -0.046264   0.000803  -0.050042
    22  H    0.366307  -0.034792  -0.002045   0.000374   0.000000  -0.000010
    23  H    0.368404  -0.031927  -0.001825  -0.000166   0.000002   0.000024
    24  H    0.367052  -0.033335   0.001953  -0.000203   0.000002  -0.000005
    25  H   -0.006675  -0.039413   0.344059  -0.034262  -0.007051   0.004649
    26  H   -0.000001   0.000464  -0.001740  -0.035945   0.361065   0.004229
    27  H    0.000003  -0.000226   0.001091  -0.028949   0.364770  -0.006468
    28  H    0.000002  -0.000182  -0.000643  -0.031642   0.366438  -0.003553
    29  H   -0.000000  -0.000010  -0.000043   0.001139   0.000001  -0.001940
    30  H   -0.000000   0.000000  -0.000000   0.000003  -0.000001  -0.000003
    31  H    0.000000   0.000000   0.000000  -0.000003   0.000004   0.000003
    32  H    0.000000  -0.000000   0.000000   0.000000  -0.000000   0.000002
    33  H   -0.000000  -0.000000   0.000000   0.000000   0.000000  -0.000011
    34  H   -0.000000  -0.000000  -0.000000   0.000001  -0.000001  -0.000185
    35  H    0.000000  -0.000005   0.000027  -0.000953   0.000161  -0.003044
    36  H   -0.000000  -0.000011  -0.000071   0.003576  -0.001028  -0.002092
    37  H    0.000002  -0.000193  -0.000005   0.000236   0.000001  -0.007268
    38  H   -0.000001   0.000361  -0.000009  -0.000129   0.000002   0.003712
    39  H    0.000000   0.000014  -0.000014   0.000085   0.000001   0.002422
    40  H   -0.005368  -0.035658   0.004598   0.000817   0.000010   0.003646
               7          8          9         10         11         12
     1  C    0.000004  -0.000000  -0.000000  -0.000000   0.000000   0.000000
     2  C    0.000019   0.000032  -0.000000   0.000000   0.000000   0.000000
     3  C    0.008052  -0.000013   0.000001  -0.000000   0.000000   0.000000
     4  C   -0.071550  -0.006448   0.000210  -0.000004   0.000000   0.000066
     5  C   -0.006448   0.002292  -0.000225   0.000000   0.000040   0.000001
     6  C    0.344345  -0.016175   0.002942  -0.000055   0.000817   0.006268
     7  C    5.048226   0.610563  -0.037948   0.004057  -0.004710  -0.013074
     8  C    0.610563   4.843386   0.228093  -0.031602  -0.056219  -0.014498
     9  N   -0.037948   0.228093   7.235042   0.254778   0.259272  -0.050960
    10  C    0.004057  -0.031602   0.254778   4.918454  -0.032240   0.003839
    11  C   -0.004710  -0.056219   0.259272  -0.032240   4.729402   0.666917
    12  C   -0.013074  -0.014498  -0.050960   0.003839   0.666917   4.999563
    13  C    0.332850  -0.052122  -0.030962   0.000030  -0.045773   0.312666
    14  C   -0.071511  -0.003332   0.000066   0.000000   0.000016   0.000113
    15  C   -0.008245   0.001580  -0.000092   0.000001   0.000014  -0.000149
    16  C   -0.004222  -0.004553   0.000053   0.000002   0.000020   0.000032
    17  C   -0.000163   0.000006   0.000006  -0.000000  -0.000002  -0.000008
    18  N   -0.000001   0.000001  -0.000000  -0.000000  -0.000000  -0.000000
    19  C    0.000509   0.000302   0.000000  -0.000000   0.000000   0.000001
    20  N    0.000006   0.000003  -0.000000  -0.000000   0.000000   0.000000
    21  C    0.007943  -0.000096   0.000001  -0.000000   0.000000   0.000001
    22  H   -0.000000   0.000000  -0.000000   0.000000  -0.000000   0.000000
    23  H   -0.000000  -0.000000   0.000000  -0.000000   0.000000  -0.000000
    24  H   -0.000000   0.000000  -0.000000   0.000000  -0.000000   0.000000
    25  H   -0.000210  -0.000005  -0.000000   0.000000  -0.000000  -0.000000
    26  H    0.000694   0.000122  -0.000001  -0.000000  -0.000000   0.000001
    27  H    0.001304  -0.000173   0.000056  -0.000002   0.000020  -0.000286
    28  H    0.001414   0.001456  -0.000106   0.000011  -0.000004   0.000006
    29  H   -0.041160   0.368010  -0.055485  -0.003268   0.003860  -0.000389
    30  H    0.000526  -0.000556  -0.043552   0.378223   0.002353  -0.000216
    31  H    0.000026   0.001098  -0.056388   0.373406   0.001348   0.000165
    32  H   -0.000203   0.002180  -0.043601   0.379316  -0.000944   0.000424
    33  H   -0.000424   0.004632  -0.059142  -0.002997   0.369880  -0.030441
    34  H    0.003058   0.000850   0.004492  -0.000131  -0.031348   0.358743
    35  H   -0.049944   0.001537   0.000752  -0.000002   0.000978  -0.044445
    36  H   -0.046895  -0.001882   0.001784   0.000021  -0.001537  -0.042408
    37  H    0.005683   0.000495  -0.000043  -0.000001   0.000100   0.000004
    38  H    0.000469   0.000036  -0.000001  -0.000000  -0.000000   0.000001
    39  H    0.006133   0.011821  -0.000625  -0.000022  -0.000025  -0.000002
    40  H   -0.000201  -0.000002  -0.000000   0.000000  -0.000000  -0.000000
              13         14         15         16         17         18
     1  C   -0.000000   0.005263  -0.000226  -0.000000  -0.000000  -0.000000
     2  C    0.000004  -0.035623   0.005371   0.000001   0.000001   0.000000
     3  C   -0.000017  -0.046522   0.000849   0.000007  -0.000000  -0.000000
     4  C   -0.000817  -0.042805   0.006139  -0.000043   0.000004   0.000000
     5  C   -0.001314   0.006428  -0.000180   0.000002  -0.000000  -0.000000
     6  C   -0.045639   0.490698  -0.044361  -0.003340   0.000221   0.000002
     7  C    0.332850  -0.071511  -0.008245  -0.004222  -0.000163  -0.000001
     8  C   -0.052122  -0.003332   0.001580  -0.004553   0.000006   0.000001
     9  N   -0.030962   0.000066  -0.000092   0.000053   0.000006  -0.000000
    10  C    0.000030   0.000000   0.000001   0.000002  -0.000000  -0.000000
    11  C   -0.045773   0.000016   0.000014   0.000020  -0.000002  -0.000000
    12  C    0.312666   0.000113  -0.000149   0.000032  -0.000008  -0.000000
    13  C    5.139186  -0.001635  -0.002759  -0.000023   0.000015   0.000000
    14  C   -0.001635   4.976851   0.298160  -0.043885   0.006213   0.000012
    15  C   -0.002759   0.298160   5.199757   0.294735  -0.036146  -0.002043
    16  C   -0.000023  -0.043885   0.294735   5.432360   0.145889  -0.039059
    17  C    0.000015   0.006213  -0.036146   0.145889   4.988303   0.862873
    18  N    0.000000   0.000012  -0.002043  -0.039059   0.862873   6.427786
    19  C   -0.000007  -0.005300  -0.049150   0.166325  -0.052873  -0.003275
    20  N   -0.000000  -0.001303  -0.002567  -0.039426  -0.004147  -0.000132
    21  C    0.000029   0.474362  -0.044333  -0.006216  -0.000051  -0.000001
    22  H   -0.000000  -0.000198   0.000002  -0.000000   0.000000   0.000000
    23  H    0.000000  -0.000077   0.000000   0.000000   0.000000   0.000000
    24  H   -0.000000   0.000240   0.000007   0.000000  -0.000000  -0.000000
    25  H    0.000002   0.000689   0.000010  -0.000000   0.000000  -0.000000
    26  H    0.000019  -0.000145   0.000001   0.000000   0.000000   0.000000
    27  H    0.001187  -0.000005   0.000005   0.000000  -0.000000  -0.000000
    28  H   -0.000014   0.000026   0.000001  -0.000000   0.000000   0.000000
    29  H    0.005375   0.000481   0.000037  -0.000564   0.000032  -0.000000
    30  H   -0.000004  -0.000003   0.000001  -0.000017  -0.000000   0.000000
    31  H    0.000019   0.000000  -0.000000   0.000000   0.000000  -0.000000
    32  H   -0.000002  -0.000000   0.000000   0.000000  -0.000000   0.000000
    33  H    0.005355   0.000000  -0.000000   0.000000  -0.000000  -0.000000
    34  H   -0.036915  -0.000001  -0.000002  -0.000000   0.000000   0.000000
    35  H    0.362455   0.003847  -0.000043   0.000102  -0.000006  -0.000001
    36  H    0.363006  -0.000789   0.000121  -0.000005  -0.000000   0.000000
    37  H    0.001916  -0.030542   0.365572  -0.043756  -0.001194   0.000266
    38  H    0.000044  -0.034381   0.369879  -0.035700  -0.003957  -0.000064
    39  H    0.000073  -0.005173  -0.032219   0.383641  -0.043700  -0.001596
    40  H    0.000001  -0.037345  -0.005608   0.000171  -0.000032  -0.000000
              19         20         21         22         23         24
     1  C   -0.000004  -0.000005  -0.046527   0.366307   0.368404   0.367052
     2  C   -0.000195  -0.000086   0.519241  -0.034792  -0.031927  -0.033335
     3  C   -0.000003   0.000006  -0.054931  -0.002045  -0.001825   0.001953
     4  C    0.000011   0.000002  -0.046264   0.000374  -0.000166  -0.000203
     5  C    0.000000  -0.000000   0.000803   0.000000   0.000002   0.000002
     6  C   -0.001146  -0.000046  -0.050042  -0.000010   0.000024  -0.000005
     7  C    0.000509   0.000006   0.007943  -0.000000  -0.000000  -0.000000
     8  C    0.000302   0.000003  -0.000096   0.000000  -0.000000   0.000000
     9  N    0.000000  -0.000000   0.000001  -0.000000   0.000000  -0.000000
    10  C   -0.000000  -0.000000  -0.000000   0.000000  -0.000000   0.000000
    11  C    0.000000   0.000000   0.000000  -0.000000   0.000000  -0.000000
    12  C    0.000001   0.000000   0.000001   0.000000  -0.000000   0.000000
    13  C   -0.000007  -0.000000   0.000029  -0.000000   0.000000  -0.000000
    14  C   -0.005300  -0.001303   0.474362  -0.000198  -0.000077   0.000240
    15  C   -0.049150  -0.002567  -0.044333   0.000002   0.000000   0.000007
    16  C    0.166325  -0.039426  -0.006216  -0.000000   0.000000   0.000000
    17  C   -0.052873  -0.004147  -0.000051   0.000000   0.000000  -0.000000
    18  N   -0.003275  -0.000132  -0.000001   0.000000   0.000000  -0.000000
    19  C    4.984755   0.847557   0.006622   0.000000  -0.000001  -0.000000
    20  N    0.847557   6.450782  -0.000603  -0.000000   0.000008  -0.000000
    21  C    0.006622  -0.000603   5.081073   0.002988  -0.002870  -0.002454
    22  H    0.000000  -0.000000   0.002988   0.577685  -0.030406  -0.029198
    23  H   -0.000001   0.000008  -0.002870  -0.030406   0.563850  -0.031550
    24  H   -0.000000  -0.000000  -0.002454  -0.029198  -0.031550   0.574602
    25  H    0.000000   0.000000   0.005307   0.004790   0.000277   0.000074
    26  H   -0.000000  -0.000000  -0.000016  -0.000000   0.000000  -0.000000
    27  H    0.000000   0.000000   0.000012  -0.000000  -0.000000  -0.000000
    28  H   -0.000000  -0.000000   0.000020   0.000000  -0.000000  -0.000000
    29  H    0.000003  -0.000001  -0.000018  -0.000000   0.000000  -0.000000
    30  H    0.000000   0.000000   0.000000   0.000000  -0.000000   0.000000
    31  H   -0.000000  -0.000000  -0.000000  -0.000000   0.000000  -0.000000
    32  H    0.000000   0.000000   0.000000  -0.000000   0.000000  -0.000000
    33  H    0.000000   0.000000   0.000000  -0.000000   0.000000  -0.000000
    34  H   -0.000000  -0.000000  -0.000000  -0.000000   0.000000  -0.000000
    35  H   -0.000009  -0.000000  -0.000148   0.000000  -0.000000   0.000000
    36  H    0.000000   0.000000   0.000038   0.000000  -0.000000   0.000000
    37  H    0.006963   0.000030   0.002925  -0.000000   0.000000  -0.000000
    38  H   -0.009475  -0.000348  -0.002744   0.000000   0.000001  -0.000003
    39  H   -0.044632  -0.001512   0.000156  -0.000000  -0.000000  -0.000000
    40  H    0.001233   0.000446   0.347861   0.000049   0.000640   0.003177
              25         26         27         28         29         30
     1  C   -0.006675  -0.000001   0.000003   0.000002  -0.000000  -0.000000
     2  C   -0.039413   0.000464  -0.000226  -0.000182  -0.000010   0.000000
     3  C    0.344059  -0.001740   0.001091  -0.000643  -0.000043  -0.000000
     4  C   -0.034262  -0.035945  -0.028949  -0.031642   0.001139   0.000003
     5  C   -0.007051   0.361065   0.364770   0.366438   0.000001  -0.000001
     6  C    0.004649   0.004229  -0.006468  -0.003553  -0.001940  -0.000003
     7  C   -0.000210   0.000694   0.001304   0.001414  -0.041160   0.000526
     8  C   -0.000005   0.000122  -0.000173   0.001456   0.368010  -0.000556
     9  N   -0.000000  -0.000001   0.000056  -0.000106  -0.055485  -0.043552
    10  C    0.000000  -0.000000  -0.000002   0.000011  -0.003268   0.378223
    11  C   -0.000000  -0.000000   0.000020  -0.000004   0.003860   0.002353
    12  C   -0.000000   0.000001  -0.000286   0.000006  -0.000389  -0.000216
    13  C    0.000002   0.000019   0.001187  -0.000014   0.005375  -0.000004
    14  C    0.000689  -0.000145  -0.000005   0.000026   0.000481  -0.000003
    15  C    0.000010   0.000001   0.000005   0.000001   0.000037   0.000001
    16  C   -0.000000   0.000000   0.000000  -0.000000  -0.000564  -0.000017
    17  C    0.000000   0.000000  -0.000000   0.000000   0.000032  -0.000000
    18  N   -0.000000   0.000000  -0.000000   0.000000  -0.000000   0.000000
    19  C    0.000000  -0.000000   0.000000  -0.000000   0.000003   0.000000
    20  N    0.000000  -0.000000   0.000000  -0.000000  -0.000001   0.000000
    21  C    0.005307  -0.000016   0.000012   0.000020  -0.000018   0.000000
    22  H    0.004790  -0.000000  -0.000000   0.000000  -0.000000   0.000000
    23  H    0.000277   0.000000  -0.000000  -0.000000   0.000000  -0.000000
    24  H    0.000074  -0.000000  -0.000000  -0.000000  -0.000000   0.000000
    25  H    0.602224   0.005672   0.000167   0.000212   0.000001   0.000000
    26  H    0.005672   0.585140  -0.029595  -0.030166   0.000000  -0.000000
    27  H    0.000167  -0.029595   0.570628  -0.033478   0.000051   0.000000
    28  H    0.000212  -0.030166  -0.033478   0.577540   0.000290  -0.000000
    29  H    0.000001   0.000000   0.000051   0.000290   0.574829   0.004025
    30  H    0.000000  -0.000000   0.000000  -0.000000   0.004025   0.569264
    31  H   -0.000000   0.000000  -0.000002   0.000004  -0.000005  -0.041231
    32  H   -0.000000  -0.000000   0.000000   0.000000   0.000140  -0.023399
    33  H   -0.000000  -0.000000   0.000000  -0.000000  -0.000159   0.000126
    34  H    0.000000   0.000000   0.000001  -0.000000   0.000010   0.000003
    35  H   -0.000000   0.000002  -0.000062  -0.000000  -0.000157  -0.000002
    36  H    0.000003  -0.000116   0.003783  -0.000038  -0.000113   0.000002
    37  H   -0.000000  -0.000000  -0.000003   0.000001   0.000053   0.000000
    38  H   -0.000000  -0.000000   0.000000  -0.000000   0.000003   0.000000
    39  H    0.000000  -0.000000   0.000000  -0.000001   0.001990   0.000120
    40  H   -0.000202  -0.000000  -0.000000  -0.000000   0.000000  -0.000000
              31         32         33         34         35         36
     1  C    0.000000   0.000000  -0.000000  -0.000000   0.000000  -0.000000
     2  C    0.000000  -0.000000  -0.000000  -0.000000  -0.000005  -0.000011
     3  C    0.000000   0.000000   0.000000  -0.000000   0.000027  -0.000071
     4  C   -0.000003   0.000000   0.000000   0.000001  -0.000953   0.003576
     5  C    0.000004  -0.000000   0.000000  -0.000001   0.000161  -0.001028
     6  C    0.000003   0.000002  -0.000011  -0.000185  -0.003044  -0.002092
     7  C    0.000026  -0.000203  -0.000424   0.003058  -0.049944  -0.046895
     8  C    0.001098   0.002180   0.004632   0.000850   0.001537  -0.001882
     9  N   -0.056388  -0.043601  -0.059142   0.004492   0.000752   0.001784
    10  C    0.373406   0.379316  -0.002997  -0.000131  -0.000002   0.000021
    11  C    0.001348  -0.000944   0.369880  -0.031348   0.000978  -0.001537
    12  C    0.000165   0.000424  -0.030441   0.358743  -0.044445  -0.042408
    13  C    0.000019  -0.000002   0.005355  -0.036915   0.362455   0.363006
    14  C    0.000000  -0.000000   0.000000  -0.000001   0.003847  -0.000789
    15  C   -0.000000   0.000000  -0.000000  -0.000002  -0.000043   0.000121
    16  C    0.000000   0.000000   0.000000  -0.000000   0.000102  -0.000005
    17  C    0.000000  -0.000000  -0.000000   0.000000  -0.000006  -0.000000
    18  N   -0.000000   0.000000  -0.000000   0.000000  -0.000001   0.000000
    19  C   -0.000000   0.000000   0.000000  -0.000000  -0.000009   0.000000
    20  N   -0.000000   0.000000   0.000000  -0.000000  -0.000000   0.000000
    21  C   -0.000000   0.000000   0.000000  -0.000000  -0.000148   0.000038
    22  H   -0.000000  -0.000000  -0.000000  -0.000000   0.000000   0.000000
    23  H    0.000000   0.000000   0.000000   0.000000  -0.000000  -0.000000
    24  H   -0.000000  -0.000000  -0.000000  -0.000000   0.000000   0.000000
    25  H   -0.000000  -0.000000  -0.000000   0.000000  -0.000000   0.000003
    26  H    0.000000  -0.000000  -0.000000   0.000000   0.000002  -0.000116
    27  H   -0.000002   0.000000   0.000000   0.000001  -0.000062   0.003783
    28  H    0.000004   0.000000  -0.000000  -0.000000  -0.000000  -0.000038
    29  H   -0.000005   0.000140  -0.000159   0.000010  -0.000157  -0.000113
    30  H   -0.041231  -0.023399   0.000126   0.000003  -0.000002   0.000002
    31  H    0.608176  -0.042112  -0.000082  -0.000002   0.000003  -0.000014
    32  H   -0.042112   0.565645   0.003871   0.000000  -0.000002   0.000002
    33  H   -0.000082   0.003871   0.576939  -0.005162  -0.000154  -0.000096
    34  H   -0.000002   0.000000  -0.005162   0.591191  -0.002029   0.000343
    35  H    0.000003  -0.000002  -0.000154  -0.002029   0.653527  -0.059298
    36  H   -0.000014   0.000002  -0.000096   0.000343  -0.059298   0.642218
    37  H   -0.000000   0.000000   0.000001  -0.000002   0.002602   0.000057
    38  H   -0.000000   0.000000   0.000000   0.000000  -0.000144   0.000002
    39  H   -0.000003  -0.000001  -0.000001   0.000000  -0.000146   0.000013
    40  H    0.000000  -0.000000  -0.000000   0.000000   0.000004  -0.000000
              37         38         39         40
     1  C    0.000002  -0.000001   0.000000  -0.005368
     2  C   -0.000193   0.000361   0.000014  -0.035658
     3  C   -0.000005  -0.000009  -0.000014   0.004598
     4  C    0.000236  -0.000129   0.000085   0.000817
     5  C    0.000001   0.000002   0.000001   0.000010
     6  C   -0.007268   0.003712   0.002422   0.003646
     7  C    0.005683   0.000469   0.006133  -0.000201
     8  C    0.000495   0.000036   0.011821  -0.000002
     9  N   -0.000043  -0.000001  -0.000625  -0.000000
    10  C   -0.000001  -0.000000  -0.000022   0.000000
    11  C    0.000100  -0.000000  -0.000025  -0.000000
    12  C    0.000004   0.000001  -0.000002  -0.000000
    13  C    0.001916   0.000044   0.000073   0.000001
    14  C   -0.030542  -0.034381  -0.005173  -0.037345
    15  C    0.365572   0.369879  -0.032219  -0.005608
    16  C   -0.043756  -0.035700   0.383641   0.000171
    17  C   -0.001194  -0.003957  -0.043700  -0.000032
    18  N    0.000266  -0.000064  -0.001596  -0.000000
    19  C    0.006963  -0.009475  -0.044632   0.001233
    20  N    0.000030  -0.000348  -0.001512   0.000446
    21  C    0.002925  -0.002744   0.000156   0.347861
    22  H   -0.000000   0.000000  -0.000000   0.000049
    23  H    0.000000   0.000001  -0.000000   0.000640
    24  H   -0.000000  -0.000003  -0.000000   0.003177
    25  H   -0.000000  -0.000000   0.000000  -0.000202
    26  H   -0.000000  -0.000000  -0.000000  -0.000000
    27  H   -0.000003   0.000000   0.000000  -0.000000
    28  H    0.000001  -0.000000  -0.000001  -0.000000
    29  H    0.000053   0.000003   0.001990   0.000000
    30  H    0.000000   0.000000   0.000120  -0.000000
    31  H   -0.000000  -0.000000  -0.000003   0.000000
    32  H    0.000000   0.000000  -0.000001  -0.000000
    33  H    0.000001   0.000000  -0.000001  -0.000000
    34  H   -0.000002   0.000000   0.000000   0.000000
    35  H    0.002602  -0.000144  -0.000146   0.000004
    36  H    0.000057   0.000002   0.000013  -0.000000
    37  H    0.548485  -0.030282  -0.003889   0.000168
    38  H   -0.030282   0.566577   0.004695   0.004608
    39  H   -0.003889   0.004695   0.483429   0.000009
    40  H    0.000168   0.004608   0.000009   0.586161
 Mulliken charges:
               1
     1  C   -0.482219
     2  C    0.131814
     3  C   -0.197486
     4  C    0.107417
     5  C   -0.470819
     6  C   -0.082848
     7  C   -0.018971
     8  C    0.109183
     9  N   -0.608413
    10  C   -0.241813
    11  C    0.137765
    12  C   -0.151935
    13  C   -0.306229
    14  C    0.097110
    15  C   -0.314119
    16  C   -0.202532
    17  C    0.138718
    18  N   -0.244768
    19  C    0.151787
    20  N   -0.248664
    21  C   -0.192071
    22  H    0.144454
    23  H    0.165614
    24  H    0.149640
    25  H    0.119685
    26  H    0.140315
    27  H    0.156170
    28  H    0.152408
    29  H    0.142982
    30  H    0.154339
    31  H    0.155588
    32  H    0.158684
    33  H    0.137863
    34  H    0.117087
    35  H    0.134599
    36  H    0.141428
    37  H    0.181620
    38  H    0.166847
    39  H    0.238957
    40  H    0.130814
 Sum of Mulliken charges =  -0.00000
 Mulliken charges with hydrogens summed into heavy atoms:
               1
     1  C   -0.022511
     2  C    0.131814
     3  C   -0.077801
     4  C    0.107417
     5  C   -0.021925
     6  C   -0.082848
     7  C   -0.018971
     8  C    0.252165
     9  N   -0.608413
    10  C    0.226798
    11  C    0.275628
    12  C   -0.034848
    13  C   -0.030203
    14  C    0.097110
    15  C    0.034348
    16  C    0.036425
    17  C    0.138718
    18  N   -0.244768
    19  C    0.151787
    20  N   -0.248664
    21  C   -0.061258
 Electronic spatial extent (au):  <R**2>=           6369.3612
 Charge=             -0.0000 electrons
 Dipole moment (field-independent basis, Debye):
    X=              2.0126    Y=             -5.0772    Z=              0.4526  Tot=              5.4803
 Quadrupole moment (field-independent basis, Debye-Ang):
   XX=           -114.3132   YY=           -148.0425   ZZ=           -123.0049
   XY=              1.4708   XZ=             11.9652   YZ=             -2.8043
 Traceless Quadrupole moment (field-independent basis, Debye-Ang):
   XX=             14.1403   YY=            -19.5889   ZZ=              5.4486
   XY=              1.4708   XZ=             11.9652   YZ=             -2.8043
 Octapole moment (field-independent basis, Debye-Ang**2):
  XXX=             47.1152  YYY=           -145.1403  ZZZ=              1.6837  XYY=            -20.1704
  XXY=            -41.6072  XXZ=              5.1245  XZZ=             30.4866  YZZ=            -15.0913
  YYZ=             10.3685  XYZ=             32.0736
 Hexadecapole moment (field-independent basis, Debye-Ang**3):
 XXXX=          -4192.4614 YYYY=          -3868.6240 ZZZZ=           -866.1861 XXXY=             73.6431
 XXXZ=            118.9261 YYYX=            -54.0073 YYYZ=             43.6041 ZZZX=             44.7872
 ZZZY=            -20.9455 XXYY=          -1436.5846 XXZZ=           -898.0186 YYZZ=           -748.0329
 XXYZ=            -54.5127 YYXZ=             95.6498 ZZXY=              7.7039
 N-N= 1.565900687877D+03 E-N=-5.129455743375D+03  KE= 8.562787832487D+02
 Unable to Open any file for archive entry.
 1\1\GINC-N2\SP\RB3LYP TD-FC\6-31G\C18H19N3\HPCMGAC13\13-Jun-2025\0\\# 
 td=(50-50,nstates=3) b3lyp/6-31g\\[No Title]\\0,1\C,0,-4.81891,-1.1506
 46,-0.0271\C,0,-3.309878,-1.085921,-0.106024\C,0,-2.516053,-2.177012,0
 .270685\C,0,-1.114079,-2.130692,0.228868\C,0,-0.316083,-3.348395,0.648
 136\C,0,-0.469358,-0.944858,-0.200462\C,0,1.025131,-0.892415,-0.301823
 \C,0,1.792617,-0.603107,0.774691\N,0,3.187709,-0.522533,0.740196\C,0,3
 .962487,-0.403107,1.972155\C,0,3.825335,-0.737428,-0.490073\C,0,3.1568
 06,-1.048496,-1.61501\C,0,1.653648,-1.235044,-1.65516\C,0,-1.263087,0.
 161858,-0.592121\C,0,-0.625931,1.457485,-1.056766\C,0,-0.205288,2.3972
 18,0.136879\C,0,0.514885,3.582483,-0.358427\N,0,1.10272,4.499735,-0.78
 8308\C,0,-1.355428,2.791655,0.966254\N,0,-2.283453,3.085891,1.617074\C
 ,0,-2.661773,0.077335,-0.541938\H,0,-5.175174,-2.185837,-0.025037\H,0,
 -5.187948,-0.673042,0.890439\H,0,-5.287467,-0.632491,-0.871161\H,0,-2.
 999506,-3.092668,0.6018\H,0,-0.974641,-4.208903,0.801101\H,0,0.431909,
 -3.624027,-0.103678\H,0,0.228142,-3.174006,1.584178\H,0,1.348282,-0.40
 9549,1.746558\H,0,3.398925,0.177397,2.708694\H,0,4.206664,-1.379834,2.
 41514\H,0,4.897859,0.12738,1.770118\H,0,4.902447,-0.614168,-0.47431\H,
 0,3.713096,-1.168346,-2.538824\H,0,1.205596,-0.61468,-2.451573\H,0,1.3
 88996,-2.27046,-1.941343\H,0,0.286106,1.268639,-1.629185\H,0,-1.314756
 ,2.013693,-1.700061\H,0,0.488227,1.818251,0.762933\H,0,-3.255852,0.935
 53,-0.845102\\Version=ES64L-G16RevC.02\State=1-A\HF=-861.3200113\RMSD=
 8.480e-09\PG=C01 [X(C18H19N3)]\\@
 The archive entry for this job was punched.


 I am not a vegetarian because I love animals;
 I am a vegetarian because I hate plants.
                               -- A. Whitney Brown
 Job cpu time:       0 days  0 hours 26 minutes 45.6 seconds.
 Elapsed time:       0 days  0 hours  1 minutes 43.4 seconds.
 File lengths (MBytes):  RWF=    515 Int=      0 D2E=      0 Chk=     17 Scr=      2
 Normal termination of Gaussian 16 at Fri Jun 13 11:36:07 2025.
