 Entering Gaussian System, Link 0=g16
 Input=M2316.gjf
 Output=M2316.log
 Initial command:
 /hpc/softwares/Gaussian/g16/l1.exe "/hpc/home/hpcmgac13/pbs.11132.admin1.x8z/Gau-189133.inp" -scrdir="/hpc/home/hpcmgac13/pbs.11132.admin1.x8z/"
 Default linda workers: n2
 Default is to use  16 SMP processors on each worker.
 Entering Link 1 = /hpc/softwares/Gaussian/g16/l1.exe PID=    189134.
  
 Copyright (c) 1988-2021, Gaussian, Inc.  All Rights Reserved.
  
 This is part of the Gaussian(R) 16 program.  It is based on
 the Gaussian(R) 09 system (copyright 2009, Gaussian, Inc.),
 the Gaussian(R) 03 system (copyright 2003, Gaussian, Inc.),
 the Gaussian(R) 98 system (copyright 1998, Gaussian, Inc.),
 the Gaussian(R) 94 system (copyright 1995, Gaussian, Inc.),
 the Gaussian 92(TM) system (copyright 1992, Gaussian, Inc.),
 the Gaussian 90(TM) system (copyright 1990, Gaussian, Inc.),
 the Gaussian 88(TM) system (copyright 1988, Gaussian, Inc.),
 the Gaussian 86(TM) system (copyright 1986, Carnegie Mellon
 University), and the Gaussian 82(TM) system (copyright 1983,
 Carnegie Mellon University). Gaussian is a federally registered
 trademark of Gaussian, Inc.
  
 This software contains proprietary and confidential information,
 including trade secrets, belonging to Gaussian, Inc.
  
 This software is provided under written license and may be
 used, copied, transmitted, or stored only in accord with that
 written license.
  
 The following legend is applicable only to US Government
 contracts under FAR:
  
                    RESTRICTED RIGHTS LEGEND
  
 Use, reproduction and disclosure by the US Government is
 subject to restrictions as set forth in subparagraphs (a)
 and (c) of the Commercial Computer Software - Restricted
 Rights clause in FAR 52.227-19.
  
 Gaussian, Inc.
 340 Quinnipiac St., Bldg. 40, Wallingford CT 06492
  
  
 ---------------------------------------------------------------
 Warning -- This program may not be used in any manner that
 competes with the business of Gaussian, Inc. or will provide
 assistance to any competitor of Gaussian, Inc.  The licensee
 of this program is prohibited from giving any competitor of
 Gaussian, Inc. access to this program.  By using this program,
 the user acknowledges that Gaussian, Inc. is engaged in the
 business of creating and licensing software in the field of
 computational chemistry and represents and warrants to the
 licensee that it is not a competitor of Gaussian, Inc. and that
 it will not use this program in any manner prohibited above.
 ---------------------------------------------------------------
  

 Cite this work as:
 Gaussian 16, Revision C.02,
 M. J. Frisch, G. W. Trucks, H. B. Schlegel, G. E. Scuseria, 
 M. A. Robb, J. R. Cheeseman, G. Scalmani, V. Barone, 
 G. A. Petersson, H. Nakatsuji, X. Li, M. Caricato, A. V. Marenich, 
 J. Bloino, B. G. Janesko, R. Gomperts, B. Mennucci, H. P. Hratchian, 
 J. V. Ortiz, A. F. Izmaylov, J. L. Sonnenberg, D. Williams-Young, 
 F. Ding, F. Lipparini, F. Egidi, J. Goings, B. Peng, A. Petrone, 
 T. Henderson, D. Ranasinghe, V. G. Zakrzewski, J. Gao, N. Rega, 
 G. Zheng, W. Liang, M. Hada, M. Ehara, K. Toyota, R. Fukuda, 
 J. Hasegawa, M. Ishida, T. Nakajima, Y. Honda, O. Kitao, H. Nakai, 
 T. Vreven, K. Throssell, J. A. Montgomery, Jr., J. E. Peralta, 
 F. Ogliaro, M. J. Bearpark, J. J. Heyd, E. N. Brothers, K. N. Kudin, 
 V. N. Staroverov, T. A. Keith, R. Kobayashi, J. Normand, 
 K. Raghavachari, A. P. Rendell, J. C. Burant, S. S. Iyengar, 
 J. Tomasi, M. Cossi, J. M. Millam, M. Klene, C. Adamo, R. Cammi, 
 J. W. Ochterski, R. L. Martin, K. Morokuma, O. Farkas, 
 J. B. Foresman, and D. J. Fox, Gaussian, Inc., Wallingford CT, 2019.
 
 ******************************************
 Gaussian 16:  ES64L-G16RevC.02  7-Dec-2021
                13-Jun-2025 
 ******************************************
 SetLPE:    new flags="-opt 'Tsnet.Node.lindarsharg: ssh'  -nodelist 'n2.head.cm.mguif.local' -env GAUSS_MDEF=4294967296 -env GAUSS_EXEDIR="/hpc/softwares/Gaussian/g16/bsd:/hpc/softwares/Gaussian/g16""
 Will use up to    1 processors via Linda.
 ----------------------------------
 # td=(50-50,nstates=3) b3lyp/6-31g
 ----------------------------------
 1/38=1,172=1/1;
 2/12=2,17=6,18=5,40=1/2;
 3/5=1,6=6,11=9,25=1,30=1,74=-5/1,2,3,8;
 4//1;
 5/5=2,38=5/2;
 8/6=1,10=2,108=3/1;
 9/41=3,42=1,48=2,70=2/14;
 6/7=2,8=2,9=2,10=2/1;
 99/5=1,9=1/99;
 ----------
 [No Title]
 ----------
 Symbolic Z-matrix:
 Charge =  0 Multiplicity = 1
 C                    -3.00068   4.66008   0.22199 
 C                    -2.65795   3.18759   0.15496 
 C                    -3.63402   2.23702  -0.1824 
 C                    -3.33977   0.8707   -0.25991 
 C                    -4.44396  -0.10745  -0.60449 
 C                    -2.01861   0.4173    0.00602 
 C                    -1.70317  -1.04374  -0.10453 
 C                    -1.72694  -1.84263   0.98481 
 N                    -1.49061  -3.22302   0.94966 
 C                    -1.28657  -3.96948   2.18638 
 C                    -1.19328  -3.80241  -0.29117 
 C                    -1.14339  -3.09602  -1.43503 
 C                    -1.37513  -1.5999   -1.49129 
 C                    -1.02479   1.36587   0.34741 
 C                     0.41789   0.97659   0.62857 
 C                     1.3682    1.29728  -0.56569 
 C                     2.82935   1.07163  -0.23924 
 C                     3.63468   2.15336   0.17111 
 C                     4.98107   1.98843   0.50503 
 C                     5.56675   0.71986   0.43379 
 C                     4.79726  -0.37566   0.02897 
 C                     3.45544  -0.18134  -0.29445 
 Cl                    2.50001  -1.66003  -0.81614 
 C                    -1.36513   2.72909   0.4208 
 H                    -3.91729   4.83357   0.79864 
 H                    -2.19558   5.23616   0.68966 
 H                    -3.16705   5.07826  -0.77995 
 H                    -4.65138   2.56702  -0.37999 
 H                    -5.40519   0.40795  -0.69605 
 H                    -4.25134  -0.62224  -1.55409 
 H                    -4.54375  -0.8865    0.15925 
 H                    -1.95486  -1.44431   1.96829 
 H                    -0.24789  -3.91958   2.54751 
 H                    -1.942    -3.57421   2.96856 
 H                    -1.54571  -5.02097   2.02896 
 H                    -1.02001  -4.87277  -0.26616 
 H                    -0.93523  -3.61731  -2.36391 
 H                    -0.48937  -1.08485  -1.90323 
 H                    -2.1887   -1.35831  -2.19914 
 H                     0.77673   1.52961   1.50708 
 H                     0.48952  -0.08781   0.86342 
 H                     1.07086   0.68995  -1.4268 
 H                     1.22895   2.34671  -0.85163 
 H                     3.18366   3.14027   0.22059 
 H                     5.57039   2.84529   0.81469 
 H                     6.61214   0.5787    0.68712 
 H                     5.22995  -1.36659  -0.03651 
 H                    -0.59625   3.44654   0.70048 
 
                          Input orientation:                          
 ---------------------------------------------------------------------
 Center     Atomic      Atomic             Coordinates (Angstroms)
 Number     Number       Type             X           Y           Z
 ---------------------------------------------------------------------
      1          6           0       -3.000682    4.660082    0.221991
      2          6           0       -2.657947    3.187593    0.154962
      3          6           0       -3.634023    2.237018   -0.182397
      4          6           0       -3.339769    0.870701   -0.259908
      5          6           0       -4.443964   -0.107453   -0.604491
      6          6           0       -2.018607    0.417301    0.006017
      7          6           0       -1.703171   -1.043742   -0.104525
      8          6           0       -1.726935   -1.842633    0.984805
      9          7           0       -1.490605   -3.223016    0.949661
     10          6           0       -1.286566   -3.969475    2.186381
     11          6           0       -1.193279   -3.802406   -0.291172
     12          6           0       -1.143392   -3.096024   -1.435025
     13          6           0       -1.375133   -1.599904   -1.491291
     14          6           0       -1.024786    1.365869    0.347406
     15          6           0        0.417890    0.976589    0.628566
     16          6           0        1.368200    1.297279   -0.565689
     17          6           0        2.829348    1.071632   -0.239235
     18          6           0        3.634682    2.153356    0.171114
     19          6           0        4.981065    1.988430    0.505034
     20          6           0        5.566748    0.719859    0.433794
     21          6           0        4.797256   -0.375656    0.028969
     22          6           0        3.455435   -0.181336   -0.294447
     23         17           0        2.500010   -1.660027   -0.816139
     24          6           0       -1.365132    2.729087    0.420801
     25          1           0       -3.917291    4.833568    0.798636
     26          1           0       -2.195579    5.236161    0.689661
     27          1           0       -3.167050    5.078264   -0.779954
     28          1           0       -4.651378    2.567018   -0.379992
     29          1           0       -5.405192    0.407947   -0.696046
     30          1           0       -4.251336   -0.622240   -1.554091
     31          1           0       -4.543752   -0.886495    0.159251
     32          1           0       -1.954862   -1.444313    1.968294
     33          1           0       -0.247888   -3.919583    2.547510
     34          1           0       -1.942002   -3.574205    2.968555
     35          1           0       -1.545712   -5.020971    2.028959
     36          1           0       -1.020007   -4.872772   -0.266158
     37          1           0       -0.935225   -3.617307   -2.363911
     38          1           0       -0.489365   -1.084846   -1.903227
     39          1           0       -2.188701   -1.358310   -2.199138
     40          1           0        0.776730    1.529610    1.507083
     41          1           0        0.489524   -0.087812    0.863424
     42          1           0        1.070856    0.689954   -1.426795
     43          1           0        1.228949    2.346712   -0.851633
     44          1           0        3.183658    3.140268    0.220586
     45          1           0        5.570389    2.845294    0.814685
     46          1           0        6.612142    0.578696    0.687120
     47          1           0        5.229946   -1.366594   -0.036512
     48          1           0       -0.596246    3.446536    0.700483
 ---------------------------------------------------------------------
                    Distance matrix (angstroms):
                    1          2          3          4          5
     1  C    0.000000
     2  C    1.513335   0.000000
     3  C    2.536906   1.403613   0.000000
     4  C    3.834920   2.450507   1.399791   0.000000
     5  C    5.049309   3.824128   2.516091   1.514850   0.000000
     6  C    4.360310   2.847009   2.440582   1.421885   2.555473
     7  C    5.858648   4.345472   3.807577   2.523428   2.939141
     8  C    6.670054   5.182528   4.652193   3.393041   3.594295
     9  N    8.059347   6.564308   5.973924   4.651987   4.565572
    10  C    9.014781   7.565115   7.045723   5.798903   5.716060
    11  C    8.668549   7.155723   6.514883   5.142599   4.931308
    12  C    8.145699   6.656259   6.017778   4.684002   4.529362
    13  C    6.690678   5.222632   4.640879   3.388213   3.525840
    14  C    3.843401   2.454165   2.801376   2.444007   3.842859
    15  C    5.041831   3.817540   4.320225   3.862719   5.131589
    16  C    5.569202   4.505828   5.104141   4.737134   5.979634
    17  C    6.861410   5.894327   6.567840   6.172423   7.377311
    18  C    7.093259   6.377075   7.277777   7.104502   8.424805
    19  C    8.421765   7.740481   8.646045   8.430346   9.718793
    20  C    9.432448   8.591453   9.345354   8.934765  10.098358
    21  C    9.284598   8.263938   8.829338   8.236992   9.266788
    22  C    8.086253   6.994647   7.491422   6.876247   7.905826
    23  Cl   8.442695   7.144717   7.294858   6.388818   7.118571
    24  C    2.538364   1.397236   2.398718   2.795739   4.310034
    25  H    1.096717   2.170138   2.790114   4.142265   5.163317
    26  H    1.094885   2.167099   3.438672   4.611734   5.940057
    27  H    1.098384   2.169767   2.940717   4.243096   5.343497
    28  H    2.732782   2.155239   1.087637   2.147610   2.691880
    29  H    4.970424   3.999750   2.597379   2.161095   1.094522
    30  H    5.711526   4.469293   3.230786   2.175945   1.097202
    31  H    5.757562   4.489373   3.271187   2.170946   1.095521
    32  H    6.434823   5.023650   4.582276   3.498877   3.821262
    33  H    9.305728   7.876841   7.538039   6.355167   6.486486
    34  H    8.744593   7.358722   6.823617   5.668678   5.571790
    35  H    9.955142   8.492906   7.869533   6.570339   6.283119
    36  H    9.748675   8.235877   7.575567   6.194257   5.877603
    37  H    8.914492   7.457825   6.805559   5.509163   5.265537
    38  H    6.620231   5.214655   4.887219   3.827462   4.275613
    39  H    6.537754   5.140740   4.368362   3.170814   3.032120
    40  H    5.071504   4.046498   4.775930   4.527911   5.864671
    41  H    5.927518   4.597474   4.847908   4.104157   5.147277
    42  H    5.920966   4.758585   5.106645   4.565951   5.632520
    43  H    4.939041   4.102228   4.910031   4.837554   6.185948
    44  H    6.368351   5.842165   6.889051   6.923649   8.331210
    45  H    8.781116   8.261835   9.278220   9.189379  10.536605
    46  H   10.453729   9.644899  10.415853  10.001133  11.152423
    47  H   10.204454   9.110222   9.569600   8.859764   9.772030
    48  H    2.735500   2.148315   3.386813   3.883838   5.398030
                    6          7          8          9         10
     6  C    0.000000
     7  C    1.498788   0.000000
     8  C    2.480000   1.351085   0.000000
     9  N    3.797520   2.430170   1.400908   0.000000
    10  C    4.953148   3.739214   2.482170   1.458873   0.000000
    11  C    4.309921   2.811593   2.398670   1.401343   2.484931
    12  C    3.896929   2.509072   2.786950   2.413174   3.728002
    13  C    2.593281   1.529721   2.512714   2.933611   4.375841
    14  C    1.415630   2.543752   3.345710   4.651619   5.649447
    15  C    2.576216   3.019612   3.560224   4.624082   5.458526
    16  C    3.545655   3.889264   4.673643   5.558967   6.508484
    17  C    4.898057   5.003667   5.545352   6.206405   6.945295
    18  C    5.916149   6.228169   6.736242   7.468606   8.109811
    19  C    7.191166   7.365096   7.739799   8.321020   8.809470
    20  C    7.603430   7.500120   7.750341   8.100532   8.487009
    21  C    6.861873   6.536032   6.755051   6.963643   7.388021
    22  C    5.514869   5.233644   5.590470   5.938260   6.556758
    23  Cl   5.040747   4.307311   4.598240   4.635299   5.356009
    24  C    2.437915   3.824196   4.620566   5.976869   6.927783
    25  H    4.872028   6.345140   7.028796   8.415471   9.291938
    26  H    4.870329   6.349045   7.100427   8.492483   9.370710
    27  H    4.864283   6.330727   7.286091   8.643685   9.705511
    28  H    3.420785   4.669625   5.464436   6.729261   7.786782
    29  H    3.458603   4.020231   4.628169   5.587149   6.665830
    30  H    2.915418   2.961765   3.782585   4.544716   5.829663
    31  H    2.846001   2.857132   3.087102   3.925020   4.921715
    32  H    2.705587   2.126119   1.085293   2.101650   2.621188
    33  H    5.329465   4.173919   2.990543   2.140718   1.100798
    34  H    4.971380   3.987995   2.641942   2.098339   1.094363
    35  H    5.821574   4.516071   3.350363   2.097752   1.094341
    36  H    5.390376   3.892854   3.353565   2.102706   2.627156
    37  H    4.802951   3.509673   3.871714   3.382850   4.577403
    38  H    2.870582   2.170333   3.232112   3.703137   5.067693
    39  H    2.836271   2.173038   3.253504   3.725507   5.183127
    40  H    3.362193   3.920374   4.232391   5.295185   5.912577
    41  H    2.698334   2.580434   2.829633   3.709158   4.469006
    42  H    3.416441   3.528360   4.478554   5.245947   6.350020
    43  H    3.873604   4.544302   5.446133   6.454650   7.446581
    44  H    5.875726   6.441485   7.037560   7.929166   8.625294
    45  H    8.008867   8.299050   8.675053   9.311296   9.764244
    46  H    8.659086   8.509021   8.688593   8.954130   9.237057
    47  H    7.464959   6.940963   7.047545   7.041637   7.360786
    48  H    3.417844   4.694243   5.416143   6.733862   7.594844
                   11         12         13         14         15
    11  C    0.000000
    12  C    1.345312   0.000000
    13  C    2.514830   1.515007   0.000000
    14  C    5.210301   4.806206   3.507044   0.000000
    15  C    5.126458   4.825162   3.787749   1.520495   0.000000
    16  C    5.713433   5.134681   4.095886   2.562192   1.559544
    17  C    6.319847   5.880641   5.136381   3.909613   2.564613
    18  C    7.680756   7.277751   6.476789   4.728832   3.455690
    19  C    8.502367   8.192953   7.567213   6.040089   4.675644
    20  C    8.165441   7.942256   7.568155   6.623678   5.158933
    21  C    6.908807   6.695893   6.473667   6.085268   4.622438
    22  C    5.892597   5.562871   5.174858   4.783116   3.379264
    23  Cl   4.301832   3.964781   3.933977   4.788953   3.657067
    24  C    6.572430   6.117612   4.732479   1.406977   2.508701
    25  H    9.120744   8.692651   7.286693   4.538186   5.805084
    26  H    9.146712   8.662950   7.222290   4.057962   4.997790
    27  H    9.110487   8.446496   6.950892   4.431942   5.626674
    28  H    7.248165   6.744561   5.415903   3.888963   5.407784
    29  H    5.969188   5.566583   4.572227   4.603734   5.998853
    30  H    4.589132   3.974053   3.038472   4.240152   5.396473
    31  H    4.464425   4.357314   3.643266   4.182304   5.320642
    32  H    3.353475   3.869007   3.511271   3.374825   3.644940
    33  H    2.994263   4.164224   4.792025   5.777545   5.300765
    34  H    3.352385   4.500883   4.910136   5.667101   5.635101
    35  H    2.644261   3.983273   4.911716   6.625006   6.464330
    36  H    1.084589   2.130330   3.512653   6.268742   6.089590
    37  H    2.096926   1.085310   2.241629   5.673738   5.647098
    38  H    3.237182   2.166057   1.104337   3.370167   3.388599
    39  H    3.256502   2.167069   1.105128   3.906499   4.499109
    40  H    5.961967   5.808559   4.838865   2.148749   1.098358
    41  H    4.238293   4.122939   3.362745   2.161619   1.092355
    42  H    5.157252   4.385954   3.351190   2.827785   2.175554
    43  H    6.632719   5.965880   4.771392   2.734789   2.173946
    44  H    8.223150   7.768896   6.795758   4.568980   3.535170
    45  H    9.547881   9.243122   8.562569   6.775203   5.484063
    46  H    9.004205   8.840553   8.560861   7.684902   6.207295
    47  H    6.874289   6.750274   6.767413   6.836331   5.393396
    48  H    7.340776   6.903974   5.556716   2.153482   2.671008
                   16         17         18         19         20
    16  C    0.000000
    17  C    1.514081   0.000000
    18  C    2.532328   1.409637   0.000000
    19  C    3.831048   2.454453   1.396943   0.000000
    20  C    4.354330   2.840787   2.420081   1.399061   0.000000
    21  C    3.861445   2.457486   2.787057   2.418538   1.398626
    22  C    2.572241   1.401771   2.387397   2.770307   2.408346
    23  Cl   3.176378   2.811271   4.099273   4.605689   4.078121
    24  C    3.239497   4.558121   5.039043   6.389827   7.217210
    25  H    6.504086   7.794003   8.038011   9.346751  10.344211
    26  H    5.458133   6.592120   6.615476   7.879471   8.984218
    27  H    5.908490   7.232031   7.464796   8.808521   9.836062
    28  H    6.154839   7.630023   8.314663   9.690304  10.415582
    29  H    6.832770   8.273863   9.247580  10.574254  11.034369
    30  H    6.020023   7.398252   8.536366   9.812891  10.106814
    31  H    6.343941   7.639087   8.725114   9.955245  10.240994
    32  H    4.998013   5.838821   6.885934   7.876036   7.975773
    33  H    6.286446   6.492115   7.589611   8.149741   7.733189
    34  H    6.868746   7.391854   8.469359   9.216328   9.013619
    35  H    7.425858   7.836177   9.042070   9.698086   9.278403
    36  H    6.622898   7.081963   8.439420   9.147879   8.669071
    37  H    5.717738   6.377492   7.785304   8.640464   8.301435
    38  H    3.303646   4.293381   5.638848   6.720889   6.737591
    39  H    4.729889   5.909878   7.201506   8.361744   8.449740
    40  H    2.167994   2.733608   3.215861   4.346384   4.975130
    41  H    2.175526   2.834598   3.923537   4.961166   5.158984
    42  H    1.094879   2.155985   3.356793   4.550576   4.865771
    43  H    1.096569   2.135916   2.621250   4.005906   4.807855
    44  H    2.703835   2.148540   1.086216   2.153674   3.403374
    45  H    4.686169   3.430733   2.154048   1.085082   2.159297
    46  H    5.439193   3.925640   3.407504   2.163543   1.084873
    47  H    4.721158   3.427669   3.870145   3.407550   2.165158
    48  H    3.175145   4.272930   4.455704   5.768073   6.744508
                   21         22         23         24         25
    21  C    0.000000
    22  C    1.393859   0.000000
    23  Cl   2.764264   1.836172   0.000000
    24  C    6.911439   5.676267   5.977764   0.000000
    25  H   10.181932   8.983384   9.271247   3.329432   0.000000
    26  H    8.990481   7.889975   8.477818   2.654684   1.771510
    27  H    9.686577   8.470916   8.804626   3.194895   1.764847
    28  H    9.904709   8.560443   8.318683   3.386288   2.658063
    29  H   10.258149   8.889277   8.172096   4.791359   4.902453
    30  H    9.189336   7.821472   6.870389   4.843735   5.950861
    31  H    9.355873   8.043015   7.152924   4.821252   5.789679
    32  H    7.105921   5.998868   5.257897   4.489965   6.680645
    33  H    6.660026   5.980452   4.895985   7.069366   9.650945
    34  H    8.018072   7.161778   6.141617   6.823146   8.905109
    35  H    8.112469   7.337013   5.979832   7.917208  10.210290
    36  H    7.358784   6.483822   4.797367   7.640634  10.185336
    37  H    7.006819   5.946972   4.245867   6.943786   9.503247
    38  H    5.673156   4.354991   3.232485   4.551281   7.353799
    39  H    7.398220   6.072017   4.897727   4.924344   7.093238
    40  H    4.688229   3.653533   4.305907   2.684460   5.783759
    41  H    4.397241   3.185285   3.055298   3.401556   6.606375
    42  H    4.140149   2.779852   2.817409   3.675012   6.855924
    43  H    4.573791   3.414487   4.203667   2.914542   5.949086
    44  H    3.873259   3.372266   4.958327   4.571722   7.322901
    45  H    3.404351   3.855346   5.690758   6.947669   9.693790
    46  H    2.153546   3.392038   4.917448   8.266318  11.357171
    47  H    1.083267   2.149478   2.854202   7.776811  11.082032
    48  H    6.644543   5.528785   6.161488   1.088182   3.600393
                   26         27         28         29         30
    26  H    0.000000
    27  H    1.768744   0.000000
    28  H    3.781459   2.944411   0.000000
    29  H    5.960994   5.179593   2.308617   0.000000
    30  H    6.601623   5.854119   3.421974   1.768873   0.000000
    31  H    6.578918   6.193203   3.497016   1.774596   1.758089
    32  H    6.805996   7.180966   5.373679   4.736492   4.284483
    33  H    9.543204  10.027700   8.368810   7.473015   6.612352
    34  H    9.103857   9.508800   7.501207   6.424992   5.873793
    35  H   10.364594  10.607228   8.545512   7.196832   6.285498
    36  H   10.221844  10.192983   8.279510   6.877546   5.492475
    37  H    9.449693   9.116080   7.482754   6.242199   4.541236
    38  H    7.041972   6.812904   5.742709   5.277411   3.806353
    39  H    7.199462   6.663388   4.978179   3.965446   2.283057
    40  H    4.820925   5.777273   5.839660   6.657932   6.267591
    41  H    5.965288   6.539080   5.918030   6.117630   5.348434
    42  H    5.984729   6.134779   6.112539   6.523245   5.483045
    43  H    4.738343   5.176033   5.903323   6.913382   6.272292
    44  H    5.792149   6.714790   7.878902   9.059478   8.519688
    45  H    8.126631   9.158159  10.295106  11.344000  10.681815
    46  H    9.963330  10.864208  11.487342  12.097877  11.157080
    47  H    9.963038  10.611241  10.641045  10.802321   9.630774
    48  H    2.400154   3.385744   4.287782   5.857412   5.915888
                   31         32         33         34         35
    31  H    0.000000
    32  H    3.207203   0.000000
    33  H    5.775626   3.062060   0.000000
    34  H    4.678149   2.353110   1.779491   0.000000
    35  H    5.438561   3.600495   1.779409   1.770033   0.000000
    36  H    5.337430   4.197745   3.069440   3.605512   2.359214
    37  H    5.181230   4.952733   4.968487   5.426845   4.651911
    38  H    4.553154   4.155186   5.282339   5.660505   5.663130
    39  H    3.366136   4.174873   5.732150   5.628153   5.630748
    40  H    5.996811   4.064299   5.641457   5.964590   6.969663
    41  H    5.144669   3.005970   4.249987   4.743293   5.462299
    42  H    6.043555   5.023614   6.227521   6.824915   7.169611
    43  H    6.693250   5.697413   7.280225   7.726967   8.383275
    44  H    8.713865   7.104735   8.187282   8.883010   9.604321
    45  H   10.800541   8.738475   9.089477  10.113612  10.676679
    46  H   11.264076   8.895366   8.411633   9.778799   9.985358
    47  H    9.787440   7.459675   6.572791   8.083366   7.970582
    48  H    5.886501   5.231977   7.602143   7.499734   8.623515
                   36         37         38         39         40
    36  H    0.000000
    37  H    2.446211   0.000000
    38  H    4.160524   2.612351   0.000000
    39  H    4.177763   2.588710   1.746450   0.000000
    40  H    6.882089   6.663793   4.479798   5.556072   0.000000
    41  H    5.143003   4.990284   3.099461   4.262199   1.764324
    42  H    6.054974   4.843041   2.410641   3.926399   3.065807
    43  H    7.584295   6.522282   3.979201   5.217594   2.536868
    44  H    9.061817   8.325241   5.987760   7.413131   3.169006
    45  H   10.206375   9.705241   7.717102   9.325068   5.018925
    46  H    9.427457   9.158492   7.740069   9.462416   5.968971
    47  H    7.169933   6.963607   6.022834   7.727441   5.531891
    48  H    8.385992   7.707353   5.227251   5.833546   2.492042
                   41         42         43         44         45
    41  H    0.000000
    42  H    2.487563   0.000000
    43  H    3.068400   1.760867   0.000000
    44  H    4.253481   3.630680   2.366489   0.000000
    45  H    5.866914   5.469508   4.676890   2.477186   0.000000
    46  H    6.161312   5.931852   5.871321   4.305091   2.497797
    47  H    4.991670   4.843584   5.519152   4.956329   4.310503
    48  H    3.700954   3.860477   2.636288   3.822535   6.196928
                   46         47         48
    46  H    0.000000
    47  H    2.493644   0.000000
    48  H    7.757934   7.593016   0.000000
 Stoichiometry    C22H24ClN
 Framework group  C1[X(C22H24ClN)]
 Deg. of freedom   138
 Full point group                 C1      NOp   1
 Largest Abelian subgroup         C1      NOp   1
 Largest concise Abelian subgroup C1      NOp   1
                         Standard orientation:                         
 ---------------------------------------------------------------------
 Center     Atomic      Atomic             Coordinates (Angstroms)
 Number     Number       Type             X           Y           Z
 ---------------------------------------------------------------------
      1          6           0        3.000682   -4.660082    0.221991
      2          6           0        2.657947   -3.187593    0.154962
      3          6           0        3.634023   -2.237018   -0.182397
      4          6           0        3.339769   -0.870701   -0.259908
      5          6           0        4.443964    0.107453   -0.604491
      6          6           0        2.018607   -0.417301    0.006017
      7          6           0        1.703171    1.043742   -0.104525
      8          6           0        1.726935    1.842633    0.984805
      9          7           0        1.490605    3.223016    0.949661
     10          6           0        1.286566    3.969475    2.186381
     11          6           0        1.193279    3.802406   -0.291172
     12          6           0        1.143392    3.096024   -1.435025
     13          6           0        1.375133    1.599904   -1.491291
     14          6           0        1.024786   -1.365869    0.347406
     15          6           0       -0.417890   -0.976589    0.628566
     16          6           0       -1.368200   -1.297279   -0.565689
     17          6           0       -2.829348   -1.071632   -0.239235
     18          6           0       -3.634682   -2.153356    0.171114
     19          6           0       -4.981065   -1.988430    0.505034
     20          6           0       -5.566748   -0.719859    0.433794
     21          6           0       -4.797256    0.375656    0.028969
     22          6           0       -3.455435    0.181336   -0.294447
     23         17           0       -2.500010    1.660027   -0.816139
     24          6           0        1.365132   -2.729087    0.420801
     25          1           0        3.917291   -4.833568    0.798636
     26          1           0        2.195579   -5.236161    0.689661
     27          1           0        3.167050   -5.078264   -0.779954
     28          1           0        4.651378   -2.567018   -0.379992
     29          1           0        5.405192   -0.407947   -0.696046
     30          1           0        4.251336    0.622240   -1.554091
     31          1           0        4.543752    0.886495    0.159251
     32          1           0        1.954862    1.444313    1.968294
     33          1           0        0.247888    3.919583    2.547510
     34          1           0        1.942002    3.574205    2.968555
     35          1           0        1.545712    5.020971    2.028959
     36          1           0        1.020007    4.872772   -0.266158
     37          1           0        0.935225    3.617307   -2.363911
     38          1           0        0.489365    1.084846   -1.903227
     39          1           0        2.188701    1.358310   -2.199138
     40          1           0       -0.776730   -1.529610    1.507083
     41          1           0       -0.489524    0.087812    0.863424
     42          1           0       -1.070856   -0.689954   -1.426795
     43          1           0       -1.228949   -2.346712   -0.851633
     44          1           0       -3.183658   -3.140268    0.220586
     45          1           0       -5.570389   -2.845294    0.814685
     46          1           0       -6.612142   -0.578696    0.687120
     47          1           0       -5.229946    1.366594   -0.036512
     48          1           0        0.596246   -3.446536    0.700483
 ---------------------------------------------------------------------
 Rotational constants (GHZ):           0.2550370           0.1653093           0.1105355
 Standard basis: 6-31G (6D, 7F)
 There are   268 symmetry adapted cartesian basis functions of A   symmetry.
 There are   268 symmetry adapted basis functions of A   symmetry.
   268 basis functions,   648 primitive gaussians,   268 cartesian basis functions
    90 alpha electrons       90 beta electrons
       nuclear repulsion energy      2110.7153967945 Hartrees.
 NAtoms=   48 NActive=   48 NUniq=   48 SFac= 1.00D+00 NAtFMM=   60 NAOKFM=F Big=F
 Integral buffers will be    131072 words long.
 Regular integral format.
 Two-electron integral symmetry is turned on.
 One-electron integrals computed using PRISM.
 NBasis=   268 RedAO= T EigKep=  4.30D-04  NBF=   268
 NBsUse=   268 1.00D-06 EigRej= -1.00D+00 NBFU=   268
 ExpMin= 1.43D-01 ExpMax= 2.52D+04 ExpMxC= 3.78D+03 IAcc=3 IRadAn=         5 AccDes= 0.00D+00
 Harris functional with IExCor=  402 and IRadAn=       5 diagonalized for initial guess.
 HarFok:  IExCor=  402 AccDes= 0.00D+00 IRadAn=         5 IDoV= 1 UseB2=F ITyADJ=14
 ICtDFT=  3500011 ScaDFX=  1.000000  1.000000  1.000000  1.000000
 FoFCou: FMM=F IPFlag=           0 FMFlag=      100000 FMFlg1=           0
         NFxFlg=           0 DoJE=T BraDBF=F KetDBF=T FulRan=T
         wScrn=  0.000000 ICntrl=       500 IOpCl=  0 I1Cent=   200000004 NGrid=           0
         NMat0=    1 NMatS0=      1 NMatT0=    0 NMatD0=    1 NMtDS0=    0 NMtDT0=    0
 Petite list used in FoFCou.
 Requested convergence on RMS density matrix=1.00D-08 within 128 cycles.
 Requested convergence on MAX density matrix=1.00D-06.
 Requested convergence on             energy=1.00D-06.
 No special actions if energy rises.
 Integral accuracy reduced to 1.0D-05 until final iterations.
 Initial convergence to 1.0D-05 achieved.  Increase integral accuracy.
 SCF Done:  E(RB3LYP) =  -1367.49221694     A.U. after   15 cycles
            NFock= 15  Conv=0.86D-08     -V/T= 2.0044
 DoSCS=F DFT=T ScalE2(SS,OS)=  1.000000  1.000000
 ExpMin= 1.43D-01 ExpMax= 2.52D+04 ExpMxC= 3.78D+03 IAcc=3 IRadAn=         5 AccDes= 0.00D+00
 HarFok:  IExCor=  205 AccDes= 0.00D+00 IRadAn=         5 IDoV=-2 UseB2=F ITyADJ=14
 ICtDFT= 12500011 ScaDFX=  1.000000  1.000000  1.000000  1.000000
 GSVD:  LWork=       -1008 too small for GESVD, short by        4340 words or        4340 for optimal perf.
 Range of M.O.s used for correlation:    29   268
 NBasis=   268 NAE=    90 NBE=    90 NFC=    28 NFV=     0
 NROrb=    240 NOA=    62 NOB=    62 NVA=   178 NVB=   178

 **** Warning!!: The largest alpha MO coefficient is  0.13015864D+02

 Keep R1, R2, and R3 ints in memory in canonical form, NReq=2084721666.
 Orbital symmetries:
       Occupied  (A) (A) (A) (A) (A) (A) (A) (A) (A) (A) (A) (A)
                 (A) (A) (A) (A) (A) (A) (A) (A) (A) (A) (A) (A)
                 (A) (A) (A) (A) (A) (A) (A) (A) (A) (A) (A) (A)
                 (A) (A) (A) (A) (A) (A) (A) (A) (A) (A) (A) (A)
                 (A) (A) (A) (A) (A) (A) (A) (A) (A) (A) (A) (A)
                 (A) (A) (A) (A) (A) (A) (A) (A) (A) (A) (A) (A)
                 (A) (A) (A) (A) (A) (A) (A) (A) (A) (A) (A) (A)
                 (A) (A) (A) (A) (A) (A)
       Virtual   (A) (A) (A) (A) (A) (A) (A) (A) (A) (A) (A) (A)
                 (A) (A) (A) (A) (A) (A) (A) (A) (A) (A) (A) (A)
                 (A) (A) (A) (A) (A) (A) (A) (A) (A) (A) (A) (A)
                 (A) (A) (A) (A) (A) (A) (A) (A) (A) (A) (A) (A)
                 (A) (A) (A) (A) (A) (A) (A) (A) (A) (A) (A) (A)
                 (A) (A) (A) (A) (A) (A) (A) (A) (A) (A) (A) (A)
                 (A) (A) (A) (A) (A) (A) (A) (A) (A) (A) (A) (A)
                 (A) (A) (A) (A) (A) (A) (A) (A) (A) (A) (A) (A)
                 (A) (A) (A) (A) (A) (A) (A) (A) (A) (A) (A) (A)
                 (A) (A) (A) (A) (A) (A) (A) (A) (A) (A) (A) (A)
                 (A) (A) (A) (A) (A) (A) (A) (A) (A) (A) (A) (A)
                 (A) (A) (A) (A) (A) (A) (A) (A) (A) (A) (A) (A)
                 (A) (A) (A) (A) (A) (A) (A) (A) (A) (A) (A) (A)
                 (A) (A) (A) (A) (A) (A) (A) (A) (A) (A) (A) (A)
                 (A) (A) (A) (A) (A) (A) (A) (A) (A) (A)
    24 initial guesses have been made.
 Convergence on wavefunction:    0.001000000000000
 Iteration     1 Dimension    24 NMult     0 NNew     24
 CISAX will form    24 AO SS matrices at one time.
 New state      1 was old state     12
 New state      3 was old state      1
 New state      5 was old state      3
 New state      7 was old state      5
 New state      9 was old state      7
 New state     10 was old state      9
 New state     11 was old state     10
 New state     12 was old state     22
 Vector   6 SDiff=7.48D+00 TDiff=7.87D+00 assumed to be singlet.
 Vector  12 SDiff=7.49D+00 TDiff=7.75D+00 assumed to be singlet.
 Iteration     2 Dimension    36 NMult    24 NNew     12
 New state      6 was old state      7
 Iteration     3 Dimension    48 NMult    36 NNew     12
 Iteration     4 Dimension    60 NMult    48 NNew     12
 Iteration     5 Dimension    68 NMult    60 NNew      8
 Iteration     6 Dimension    76 NMult    68 NNew      8
 Iteration     7 Dimension    80 NMult    76 NNew      4
 New state      3 was old state      4
 New state      4 was old state      3
 Iteration     8 Dimension    84 NMult    80 NNew      4
 Iteration     9 Dimension    88 NMult    84 NNew      4
 ***********************************************************************
 Excited states from <AA,BB:AA,BB> singles matrix:
 ***********************************************************************
 
 Ground to excited state transition densities written to RWF  633
 Ground to excited state transition electric dipole moments (Au):
       state          X           Y           Z        Dip. S.      Osc.
         1         0.0000     -0.0000     -0.0000      0.0000      0.0000
         2        -0.0000      0.0000     -0.0000      0.0000      0.0000
         3         0.0000     -0.0000     -0.0000      0.0000      0.0000
         4        -0.0475     -0.0023     -0.0090      0.0023      0.0002
         5        -0.0661     -0.0618      0.0172      0.0085      0.0008
         6         0.1040     -0.3323      0.0184      0.1215      0.0118
 Ground to excited state transition velocity dipole moments (Au):
       state          X           Y           Z        Dip. S.      Osc.
         1        -0.0000      0.0000      0.0000      0.0000      0.0000
         2         0.0000     -0.0000     -0.0000      0.0000      0.0000
         3        -0.0000      0.0000     -0.0000      0.0000      0.0000
         4         0.0072      0.0043     -0.0022      0.0001      0.0004
         5         0.0041      0.0057     -0.0011      0.0001      0.0002
         6        -0.0210      0.0428     -0.0027      0.0023      0.0104
 Ground to excited state transition magnetic dipole moments (Au):
       state          X           Y           Z
         1        -0.0000     -0.0000     -0.0000
         2        -0.0000      0.0000      0.0000
         3         0.0000      0.0000     -0.0000
         4        -0.0332     -0.0004      0.0030
         5        -0.0578      0.0055     -0.0184
         6        -0.3041     -0.1323      0.3907
 Ground to excited state transition velocity quadrupole moments (Au):
       state          XX          YY          ZZ          XY          XZ          YZ
         1        -0.0000      0.0000     -0.0000     -0.0000      0.0000      0.0000
         2         0.0000     -0.0000     -0.0000      0.0000     -0.0000     -0.0000
         3         0.0000      0.0000      0.0000      0.0000     -0.0000     -0.0000
         4        -0.0200      0.0554     -0.0005      0.0151     -0.0046      0.0012
         5        -0.0448      0.0054      0.0078     -0.0063      0.0067     -0.0062
         6        -0.1968      0.0671      0.0784      0.1290      0.0036     -0.0348
 <0|del|b> * <b|rxdel|0> + <0|del|b> * <b|delr+rdel|0>
 Rotatory Strengths (R) in cgs (10**-40 erg-esu-cm/Gauss)
       state          XX          YY          ZZ    R(velocity)    E-M Angle
         1        -0.0000     -0.0000      0.0000     -0.0000       90.00
         2        -0.0000      0.0000     -0.0000     -0.0000       90.00
         3         0.0000      0.0000     -0.0000      0.0000       90.00
         4        -0.0558     -0.5339     -0.7039     -0.4312      148.73
         5         0.0540     -0.6458     -0.3708     -0.3209      115.54
         6       -17.5423     15.5257      0.3719     -0.5482       90.79
 1/2[<0|r|b>*<b|rxdel|0> + (<0|rxdel|b>*<b|r|0>)*]
 Rotatory Strengths (R) in cgs (10**-40 erg-esu-cm/Gauss)
       state          XX          YY          ZZ     R(length)
         1         0.0000     -0.0000     -0.0000     -0.0000
         2        -0.0000     -0.0000      0.0000      0.0000
         3        -0.0000      0.0000     -0.0000     -0.0000
         4        -1.1147     -0.0007      0.0189     -0.3655
         5        -2.7010      0.2405      0.2230     -0.7458
         6        22.3639    -31.0948     -5.0784     -4.6031
  1/2[<0|del|b>*<b|r|0> + (<0|r|b>*<b|del|0>)*] (Au)
       state          X           Y           Z        Dip. S.   Osc.(frdel)
         1        -0.0000     -0.0000     -0.0000      0.0000      0.0000
         2        -0.0000     -0.0000      0.0000      0.0000      0.0000
         3        -0.0000     -0.0000      0.0000      0.0000      0.0000
         4        -0.0003     -0.0000      0.0000      0.0003      0.0002
         5        -0.0003     -0.0004     -0.0000      0.0006      0.0004
         6        -0.0022     -0.0142     -0.0001      0.0165      0.0110

 Excitation energies and oscillator strengths:
 
 Excited State   1:      Triplet-A      2.8441 eV  435.94 nm  f=0.0000  <S**2>=2.000
      86 -> 97        -0.14300
      90 -> 93        -0.17023
      90 -> 94         0.25855
      90 -> 95        -0.39593
      90 -> 96         0.47534
 This state for optimization and/or second-order correction.
 Total Energy, E(TD-HF/TD-DFT) =  -1367.38769829    
 Copying the excited state density for this state as the 1-particle RhoCI density.
 
 Excited State   2:      Triplet-A      3.6265 eV  341.88 nm  f=0.0000  <S**2>=2.000
      88 -> 91        -0.11874
      88 -> 94         0.34112
      88 -> 96        -0.12558
      89 -> 93         0.40774
      89 -> 95        -0.12017
      90 -> 91        -0.34772
      90 -> 92         0.10174
      90 -> 93         0.14236
 
 Excited State   3:      Triplet-A      3.6510 eV  339.59 nm  f=0.0000  <S**2>=2.000
      88 -> 94         0.21035
      89 -> 93         0.24748
      90 -> 91         0.55389
      90 -> 92        -0.18143
 
 Excited State   4:      Singlet-A      3.6515 eV  339.54 nm  f=0.0002  <S**2>=0.000
      90 -> 91         0.67477
      90 -> 92        -0.17347
 
 Excited State   5:      Singlet-A      3.7421 eV  331.32 nm  f=0.0008  <S**2>=0.000
      90 -> 91         0.18032
      90 -> 92         0.68295
 
 Excited State   6:      Singlet-A      3.9743 eV  311.96 nm  f=0.0118  <S**2>=0.000
      90 -> 93         0.68512
      90 -> 94        -0.13667
 SavETr:  write IOETrn=   770 NScale= 10 NData=  16 NLR=1 NState=    6 LETran=     118.

 **********************************************************************

            Population analysis using the SCF Density.

 **********************************************************************

 Orbital symmetries:
       Occupied  (A) (A) (A) (A) (A) (A) (A) (A) (A) (A) (A) (A)
                 (A) (A) (A) (A) (A) (A) (A) (A) (A) (A) (A) (A)
                 (A) (A) (A) (A) (A) (A) (A) (A) (A) (A) (A) (A)
                 (A) (A) (A) (A) (A) (A) (A) (A) (A) (A) (A) (A)
                 (A) (A) (A) (A) (A) (A) (A) (A) (A) (A) (A) (A)
                 (A) (A) (A) (A) (A) (A) (A) (A) (A) (A) (A) (A)
                 (A) (A) (A) (A) (A) (A) (A) (A) (A) (A) (A) (A)
                 (A) (A) (A) (A) (A) (A)
       Virtual   (A) (A) (A) (A) (A) (A) (A) (A) (A) (A) (A) (A)
                 (A) (A) (A) (A) (A) (A) (A) (A) (A) (A) (A) (A)
                 (A) (A) (A) (A) (A) (A) (A) (A) (A) (A) (A) (A)
                 (A) (A) (A) (A) (A) (A) (A) (A) (A) (A) (A) (A)
                 (A) (A) (A) (A) (A) (A) (A) (A) (A) (A) (A) (A)
                 (A) (A) (A) (A) (A) (A) (A) (A) (A) (A) (A) (A)
                 (A) (A) (A) (A) (A) (A) (A) (A) (A) (A) (A) (A)
                 (A) (A) (A) (A) (A) (A) (A) (A) (A) (A) (A) (A)
                 (A) (A) (A) (A) (A) (A) (A) (A) (A) (A) (A) (A)
                 (A) (A) (A) (A) (A) (A) (A) (A) (A) (A) (A) (A)
                 (A) (A) (A) (A) (A) (A) (A) (A) (A) (A) (A) (A)
                 (A) (A) (A) (A) (A) (A) (A) (A) (A) (A) (A) (A)
                 (A) (A) (A) (A) (A) (A) (A) (A) (A) (A) (A) (A)
                 (A) (A) (A) (A) (A) (A) (A) (A) (A) (A) (A) (A)
                 (A) (A) (A) (A) (A) (A) (A) (A) (A) (A)
 The electronic state is 1-A.
 Alpha  occ. eigenvalues -- -101.51882 -14.35125 -10.25104 -10.21568 -10.20862
 Alpha  occ. eigenvalues --  -10.20475 -10.20451 -10.20029 -10.19702 -10.19571
 Alpha  occ. eigenvalues --  -10.19478 -10.18451 -10.18425 -10.18373 -10.18308
 Alpha  occ. eigenvalues --  -10.17964 -10.17448 -10.17413 -10.17211 -10.17119
 Alpha  occ. eigenvalues --  -10.16884 -10.16793 -10.16462 -10.16128  -9.45100
 Alpha  occ. eigenvalues --   -7.21465  -7.20379  -7.20356  -0.95069  -0.88656
 Alpha  occ. eigenvalues --   -0.85605  -0.82817  -0.80181  -0.79800  -0.77254
 Alpha  occ. eigenvalues --   -0.76569  -0.74821  -0.73860  -0.71333  -0.70898
 Alpha  occ. eigenvalues --   -0.68189  -0.67398  -0.64277  -0.62673  -0.61335
 Alpha  occ. eigenvalues --   -0.60791  -0.58614  -0.56087  -0.55591  -0.51460
 Alpha  occ. eigenvalues --   -0.51325  -0.49046  -0.48576  -0.47408  -0.47119
 Alpha  occ. eigenvalues --   -0.46019  -0.45263  -0.44796  -0.43692  -0.42594
 Alpha  occ. eigenvalues --   -0.42176  -0.41757  -0.41584  -0.41299  -0.40915
 Alpha  occ. eigenvalues --   -0.40447  -0.40112  -0.39923  -0.39637  -0.38819
 Alpha  occ. eigenvalues --   -0.38514  -0.37223  -0.36875  -0.35805  -0.35664
 Alpha  occ. eigenvalues --   -0.35424  -0.34455  -0.33872  -0.32873  -0.32285
 Alpha  occ. eigenvalues --   -0.32092  -0.31844  -0.30897  -0.30198  -0.25525
 Alpha  occ. eigenvalues --   -0.24950  -0.24517  -0.22557  -0.22170  -0.16134
 Alpha virt. eigenvalues --   -0.00976  -0.00747   0.01107   0.01294   0.01882
 Alpha virt. eigenvalues --    0.02567   0.07449   0.08951   0.09693   0.11018
 Alpha virt. eigenvalues --    0.11089   0.12401   0.12655   0.12850   0.13443
 Alpha virt. eigenvalues --    0.13825   0.14267   0.14817   0.15002   0.15837
 Alpha virt. eigenvalues --    0.16531   0.16875   0.17004   0.17541   0.17857
 Alpha virt. eigenvalues --    0.18082   0.18399   0.18992   0.19204   0.19238
 Alpha virt. eigenvalues --    0.20483   0.20758   0.23179   0.23850   0.25101
 Alpha virt. eigenvalues --    0.25338   0.25455   0.26251   0.27060   0.27777
 Alpha virt. eigenvalues --    0.28978   0.29997   0.30186   0.31154   0.33004
 Alpha virt. eigenvalues --    0.33559   0.34529   0.36119   0.36366   0.38096
 Alpha virt. eigenvalues --    0.39284   0.39842   0.41445   0.42744   0.43700
 Alpha virt. eigenvalues --    0.45087   0.47031   0.48108   0.48971   0.50875
 Alpha virt. eigenvalues --    0.51835   0.52180   0.52672   0.53421   0.54226
 Alpha virt. eigenvalues --    0.54514   0.55711   0.56532   0.56774   0.57166
 Alpha virt. eigenvalues --    0.57759   0.58105   0.58865   0.59110   0.59606
 Alpha virt. eigenvalues --    0.60478   0.61213   0.61405   0.62321   0.62463
 Alpha virt. eigenvalues --    0.62711   0.63404   0.63761   0.64139   0.64368
 Alpha virt. eigenvalues --    0.64773   0.65423   0.65527   0.66455   0.67185
 Alpha virt. eigenvalues --    0.67361   0.68566   0.69741   0.71195   0.71794
 Alpha virt. eigenvalues --    0.73128   0.73681   0.73915   0.74596   0.75679
 Alpha virt. eigenvalues --    0.76566   0.76875   0.77714   0.78754   0.79761
 Alpha virt. eigenvalues --    0.80141   0.80686   0.81616   0.82197   0.83472
 Alpha virt. eigenvalues --    0.83921   0.85484   0.85859   0.86456   0.87116
 Alpha virt. eigenvalues --    0.87308   0.87984   0.88072   0.88686   0.90176
 Alpha virt. eigenvalues --    0.91112   0.92261   0.93402   0.93604   0.93952
 Alpha virt. eigenvalues --    0.94720   0.96132   0.96474   0.97120   0.97468
 Alpha virt. eigenvalues --    0.97520   0.97885   0.98633   0.99017   0.99549
 Alpha virt. eigenvalues --    1.00424   1.02490   1.03776   1.04218   1.05116
 Alpha virt. eigenvalues --    1.05894   1.07556   1.08404   1.09778   1.11521
 Alpha virt. eigenvalues --    1.12048   1.14589   1.15109   1.15794   1.18053
 Alpha virt. eigenvalues --    1.18699   1.19399   1.20142   1.20810   1.24236
 Alpha virt. eigenvalues --    1.24785   1.25560   1.27618   1.29830   1.31973
 Alpha virt. eigenvalues --    1.33233   1.40066   1.40940   1.43061   1.44755
 Alpha virt. eigenvalues --    1.47224   1.50047   1.52452   1.53293   1.55623
 Alpha virt. eigenvalues --    1.57279   1.60732   1.63514   1.72648   1.81283
 Alpha virt. eigenvalues --    1.89231   1.95075   1.97206
          Condensed to atoms (all electrons):
               1          2          3          4          5          6
     1  C    5.168556   0.305181  -0.049612   0.005167  -0.000217   0.001037
     2  C    0.305181   4.788680   0.510880  -0.040595   0.006073  -0.027507
     3  C   -0.049612   0.510880   5.075986   0.504610  -0.046630  -0.045108
     4  C    0.005167  -0.040595   0.504610   4.903711   0.316109   0.482408
     5  C   -0.000217   0.006073  -0.046630   0.316109   5.175266  -0.052534
     6  C    0.001037  -0.027507  -0.045108   0.482408  -0.052534   5.032600
     7  C    0.000005   0.000084   0.008113  -0.067964  -0.009230   0.334393
     8  C   -0.000000   0.000029  -0.000028  -0.003802   0.000206  -0.018920
     9  N    0.000000  -0.000000   0.000001   0.000073  -0.000146   0.003559
    10  C   -0.000000   0.000000  -0.000000  -0.000000   0.000001  -0.000064
    11  C    0.000000   0.000000   0.000000   0.000016   0.000043   0.000800
    12  C    0.000000   0.000000   0.000001   0.000090   0.000064   0.005899
    13  C   -0.000000   0.000009  -0.000016  -0.001821  -0.001699  -0.040794
    14  C    0.005964  -0.038666  -0.048383  -0.040178   0.006336   0.512511
    15  C   -0.000223   0.005438   0.000822   0.005661  -0.000163  -0.037368
    16  C   -0.000001   0.000114  -0.000001  -0.000085   0.000001  -0.002453
    17  C   -0.000000   0.000000  -0.000000   0.000001  -0.000000  -0.000008
    18  C   -0.000000   0.000000   0.000000  -0.000000   0.000000  -0.000001
    19  C   -0.000000   0.000000   0.000000   0.000000  -0.000000  -0.000000
    20  C   -0.000000   0.000000  -0.000000   0.000000  -0.000000   0.000000
    21  C    0.000000   0.000000   0.000000  -0.000000  -0.000000  -0.000000
    22  C   -0.000000  -0.000000   0.000000  -0.000000  -0.000000  -0.000006
    23  Cl  -0.000000   0.000000   0.000000  -0.000002  -0.000000  -0.000141
    24  C   -0.038392   0.535938  -0.053636  -0.044006   0.000805  -0.052024
    25  H    0.365910  -0.033216  -0.002311   0.000185   0.000001   0.000007
    26  H    0.365517  -0.035082   0.003137  -0.000188   0.000002  -0.000015
    27  H    0.366270  -0.032678  -0.002800  -0.000026   0.000001   0.000020
    28  H   -0.005305  -0.044961   0.344851  -0.032160  -0.007598   0.004554
    29  H   -0.000002   0.000459  -0.001702  -0.036279   0.359210   0.004151
    30  H    0.000002  -0.000200  -0.000139  -0.030370   0.363020  -0.005342
    31  H    0.000003  -0.000205   0.000727  -0.031404   0.365262  -0.004454
    32  H   -0.000000  -0.000012  -0.000022   0.000656   0.000046  -0.002318
    33  H   -0.000000  -0.000000  -0.000000   0.000001  -0.000000  -0.000001
    34  H    0.000000   0.000000   0.000000  -0.000003  -0.000000   0.000003
    35  H    0.000000   0.000000   0.000000  -0.000000   0.000000   0.000002
    36  H   -0.000000  -0.000000   0.000000   0.000000   0.000000  -0.000010
    37  H   -0.000000  -0.000000  -0.000000  -0.000001  -0.000002  -0.000183
    38  H    0.000000  -0.000006   0.000036  -0.000588   0.000200  -0.000109
    39  H   -0.000000  -0.000012  -0.000168   0.003117  -0.001622  -0.003224
    40  H    0.000001   0.000255  -0.000007  -0.000164   0.000002   0.002931
    41  H    0.000002  -0.000210  -0.000019   0.000499   0.000000  -0.007412
    42  H    0.000000   0.000018  -0.000014  -0.000037   0.000001   0.001786
    43  H    0.000010  -0.000237  -0.000009   0.000005   0.000000  -0.000020
    44  H   -0.000000  -0.000000   0.000000  -0.000000   0.000000   0.000001
    45  H    0.000000  -0.000000  -0.000000   0.000000   0.000000   0.000000
    46  H    0.000000   0.000000  -0.000000   0.000000  -0.000000   0.000000
    47  H    0.000000  -0.000000  -0.000000  -0.000000   0.000000   0.000000
    48  H   -0.007410  -0.037018   0.005194   0.000805   0.000010   0.003897
               7          8          9         10         11         12
     1  C    0.000005  -0.000000   0.000000  -0.000000   0.000000   0.000000
     2  C    0.000084   0.000029  -0.000000   0.000000   0.000000   0.000000
     3  C    0.008113  -0.000028   0.000001  -0.000000   0.000000   0.000001
     4  C   -0.067964  -0.003802   0.000073  -0.000000   0.000016   0.000090
     5  C   -0.009230   0.000206  -0.000146   0.000001   0.000043   0.000064
     6  C    0.334393  -0.018920   0.003559  -0.000064   0.000800   0.005899
     7  C    5.021909   0.625196  -0.035608   0.003972  -0.005528  -0.013862
     8  C    0.625196   4.823310   0.221987  -0.033012  -0.054520  -0.014129
     9  N   -0.035608   0.221987   7.230621   0.262403   0.259339  -0.049454
    10  C    0.003972  -0.033012   0.262403   4.918024  -0.033978   0.003898
    11  C   -0.005528  -0.054520   0.259339  -0.033978   4.730368   0.666730
    12  C   -0.013862  -0.014129  -0.049454   0.003898   0.666730   4.993974
    13  C    0.331691  -0.050631  -0.032247   0.000051  -0.044295   0.312974
    14  C   -0.063670  -0.003632   0.000133  -0.000003   0.000006   0.000067
    15  C   -0.017328  -0.003845   0.000017   0.000004   0.000005  -0.000074
    16  C    0.001372   0.000142  -0.000002  -0.000000   0.000003   0.000024
    17  C   -0.000038  -0.000003   0.000000   0.000000  -0.000000  -0.000000
    18  C   -0.000000  -0.000000   0.000000   0.000000  -0.000000  -0.000000
    19  C    0.000000  -0.000000  -0.000000  -0.000000   0.000000   0.000000
    20  C   -0.000000   0.000000   0.000000   0.000000  -0.000000  -0.000000
    21  C   -0.000000  -0.000000  -0.000000   0.000000  -0.000000  -0.000000
    22  C    0.000006  -0.000007  -0.000002  -0.000000   0.000009   0.000034
    23  Cl  -0.000108   0.000327  -0.000249  -0.000022   0.001142   0.001782
    24  C    0.008444   0.000073   0.000000  -0.000000   0.000000   0.000001
    25  H   -0.000000  -0.000000   0.000000  -0.000000   0.000000  -0.000000
    26  H   -0.000000  -0.000000   0.000000  -0.000000  -0.000000  -0.000000
    27  H   -0.000000   0.000000  -0.000000   0.000000  -0.000000   0.000000
    28  H   -0.000215  -0.000003  -0.000000   0.000000  -0.000000  -0.000000
    29  H    0.000576   0.000075  -0.000001   0.000000  -0.000001   0.000002
    30  H    0.000180  -0.000144   0.000034  -0.000000   0.000003  -0.000414
    31  H    0.004999   0.003181  -0.000197  -0.000003   0.000025   0.000034
    32  H   -0.040415   0.369088  -0.057110  -0.003325   0.004002  -0.000410
    33  H    0.000086   0.001741  -0.057746   0.370045   0.001680   0.000201
    34  H    0.000452  -0.000998  -0.044001   0.378059   0.002382  -0.000214
    35  H   -0.000209   0.002277  -0.043590   0.378104  -0.001180   0.000397
    36  H   -0.000467   0.004659  -0.060200  -0.003231   0.368749  -0.031642
    37  H    0.003081   0.000849   0.004594  -0.000137  -0.032800   0.356873
    38  H   -0.045552  -0.001500   0.001622   0.000024  -0.001095  -0.041319
    39  H   -0.048457   0.000769   0.000825  -0.000005   0.000451  -0.044572
    40  H    0.000253   0.000111  -0.000003   0.000000  -0.000000   0.000002
    41  H    0.012406   0.007063  -0.000571  -0.000020   0.000087   0.000055
    42  H   -0.000443   0.000005   0.000003   0.000000  -0.000008  -0.000048
    43  H   -0.000056  -0.000003   0.000000   0.000000   0.000000  -0.000000
    44  H   -0.000000  -0.000000   0.000000   0.000000  -0.000000  -0.000000
    45  H    0.000000   0.000000  -0.000000  -0.000000   0.000000   0.000000
    46  H   -0.000000   0.000000   0.000000   0.000000  -0.000000  -0.000000
    47  H    0.000000  -0.000000  -0.000000  -0.000000   0.000000   0.000000
    48  H   -0.000210  -0.000004  -0.000000   0.000000  -0.000000  -0.000000
              13         14         15         16         17         18
     1  C   -0.000000   0.005964  -0.000223  -0.000001  -0.000000  -0.000000
     2  C    0.000009  -0.038666   0.005438   0.000114   0.000000   0.000000
     3  C   -0.000016  -0.048383   0.000822  -0.000001  -0.000000   0.000000
     4  C   -0.001821  -0.040178   0.005661  -0.000085   0.000001  -0.000000
     5  C   -0.001699   0.006336  -0.000163   0.000001  -0.000000   0.000000
     6  C   -0.040794   0.512511  -0.037368  -0.002453  -0.000008  -0.000001
     7  C    0.331691  -0.063670  -0.017328   0.001372  -0.000038  -0.000000
     8  C   -0.050631  -0.003632  -0.003845   0.000142  -0.000003  -0.000000
     9  N   -0.032247   0.000133   0.000017  -0.000002   0.000000   0.000000
    10  C    0.000051  -0.000003   0.000004  -0.000000   0.000000   0.000000
    11  C   -0.044295   0.000006   0.000005   0.000003  -0.000000  -0.000000
    12  C    0.312974   0.000067  -0.000074   0.000024  -0.000000  -0.000000
    13  C    5.148337  -0.001427   0.000808  -0.000771   0.000026  -0.000000
    14  C   -0.001427   4.959607   0.292097  -0.043225   0.006250   0.000052
    15  C    0.000808   0.292097   5.228750   0.302323  -0.039954  -0.003723
    16  C   -0.000771  -0.043225   0.302323   5.226268   0.273448  -0.035596
    17  C    0.000026   0.006250  -0.039954   0.273448   4.996196   0.519294
    18  C   -0.000000   0.000052  -0.003723  -0.035596   0.519294   4.975513
    19  C    0.000000   0.000002  -0.000102   0.006347  -0.032539   0.502518
    20  C    0.000000  -0.000000   0.000017   0.000156  -0.029812  -0.047218
    21  C   -0.000000   0.000002  -0.000050   0.005416  -0.060605  -0.044317
    22  C   -0.000018   0.000209  -0.004292  -0.041722   0.408385  -0.042116
    23  Cl  -0.000878   0.000108  -0.003150   0.003258  -0.072722   0.001696
    24  C   -0.000097   0.459134  -0.051865  -0.005099   0.000311  -0.000013
    25  H    0.000000  -0.000212   0.000003   0.000000   0.000000  -0.000000
    26  H    0.000000   0.000358   0.000003  -0.000000  -0.000000  -0.000000
    27  H   -0.000000  -0.000165   0.000002   0.000000   0.000000  -0.000000
    28  H    0.000001   0.000765   0.000010   0.000000   0.000000   0.000000
    29  H    0.000049  -0.000163   0.000002  -0.000000   0.000000   0.000000
    30  H    0.000503  -0.000065  -0.000001   0.000000   0.000000   0.000000
    31  H   -0.000079   0.000106   0.000006  -0.000000  -0.000000  -0.000000
    32  H    0.005649   0.001080   0.000294   0.000010  -0.000000   0.000000
    33  H    0.000024  -0.000001  -0.000011   0.000000  -0.000000  -0.000000
    34  H   -0.000006   0.000002   0.000002  -0.000000   0.000000   0.000000
    35  H   -0.000001   0.000000   0.000000  -0.000000   0.000000   0.000000
    36  H    0.005476   0.000000  -0.000000   0.000000  -0.000000   0.000000
    37  H   -0.036868   0.000001  -0.000000   0.000000  -0.000000  -0.000000
    38  H    0.359407   0.001429   0.001278  -0.001347   0.000080   0.000000
    39  H    0.360748  -0.000229  -0.000096   0.000049  -0.000001   0.000000
    40  H   -0.000006  -0.038493   0.365325  -0.046049  -0.002627   0.003411
    41  H   -0.000212  -0.032240   0.359286  -0.036617  -0.003478  -0.000176
    42  H    0.000212  -0.001140  -0.038731   0.365335  -0.030717   0.003238
    43  H    0.000018  -0.002845  -0.042919   0.364755  -0.040864  -0.006794
    44  H    0.000000  -0.000024   0.000265  -0.008698  -0.042188   0.356347
    45  H   -0.000000  -0.000000   0.000000  -0.000145   0.004550  -0.032123
    46  H   -0.000000  -0.000000  -0.000000   0.000002   0.000396   0.004684
    47  H    0.000000  -0.000000   0.000000  -0.000147   0.003420   0.000681
    48  H    0.000002  -0.040572  -0.005270  -0.000004  -0.000051  -0.000001
              19         20         21         22         23         24
     1  C   -0.000000  -0.000000   0.000000  -0.000000  -0.000000  -0.038392
     2  C    0.000000   0.000000   0.000000  -0.000000   0.000000   0.535938
     3  C    0.000000  -0.000000   0.000000   0.000000   0.000000  -0.053636
     4  C    0.000000   0.000000  -0.000000  -0.000000  -0.000002  -0.044006
     5  C   -0.000000  -0.000000  -0.000000  -0.000000  -0.000000   0.000805
     6  C   -0.000000   0.000000  -0.000000  -0.000006  -0.000141  -0.052024
     7  C    0.000000  -0.000000  -0.000000   0.000006  -0.000108   0.008444
     8  C   -0.000000   0.000000  -0.000000  -0.000007   0.000327   0.000073
     9  N   -0.000000   0.000000  -0.000000  -0.000002  -0.000249   0.000000
    10  C   -0.000000   0.000000   0.000000  -0.000000  -0.000022  -0.000000
    11  C    0.000000  -0.000000  -0.000000   0.000009   0.001142   0.000000
    12  C    0.000000  -0.000000  -0.000000   0.000034   0.001782   0.000001
    13  C    0.000000   0.000000  -0.000000  -0.000018  -0.000878  -0.000097
    14  C    0.000002  -0.000000   0.000002   0.000209   0.000108   0.459134
    15  C   -0.000102   0.000017  -0.000050  -0.004292  -0.003150  -0.051865
    16  C    0.006347   0.000156   0.005416  -0.041722   0.003258  -0.005099
    17  C   -0.032539  -0.029812  -0.060605   0.408385  -0.072722   0.000311
    18  C    0.502518  -0.047218  -0.044317  -0.042116   0.001696  -0.000013
    19  C    4.915258   0.528455  -0.038121  -0.051656   0.000482   0.000000
    20  C    0.528455   4.886273   0.520910  -0.039117   0.002357   0.000000
    21  C   -0.038121   0.520910   5.008961   0.455432  -0.066015  -0.000000
    22  C   -0.051656  -0.039117   0.455432   5.385725   0.229822  -0.000003
    23  Cl   0.000482   0.002357  -0.066015   0.229822  16.816280  -0.000001
    24  C    0.000000   0.000000  -0.000000  -0.000003  -0.000001   5.100085
    25  H   -0.000000   0.000000  -0.000000  -0.000000   0.000000   0.001066
    26  H   -0.000000   0.000000  -0.000000  -0.000000  -0.000000  -0.001516
    27  H    0.000000  -0.000000  -0.000000   0.000000   0.000000  -0.001096
    28  H    0.000000  -0.000000   0.000000   0.000000   0.000000   0.004791
    29  H    0.000000  -0.000000   0.000000   0.000000   0.000000  -0.000014
    30  H   -0.000000   0.000000  -0.000000  -0.000000   0.000000   0.000031
    31  H    0.000000  -0.000000   0.000000   0.000000  -0.000000   0.000002
    32  H   -0.000000  -0.000000   0.000000   0.000000   0.000008  -0.000058
    33  H    0.000000  -0.000000  -0.000000   0.000001   0.000048   0.000000
    34  H   -0.000000   0.000000  -0.000000  -0.000000  -0.000000  -0.000000
    35  H   -0.000000   0.000000   0.000000  -0.000000  -0.000001   0.000000
    36  H    0.000000  -0.000000   0.000000  -0.000000   0.000013   0.000000
    37  H    0.000000   0.000000  -0.000000   0.000000  -0.000021  -0.000000
    38  H   -0.000000   0.000000   0.000001  -0.000145   0.002109  -0.000120
    39  H    0.000000  -0.000000   0.000000   0.000001   0.000086   0.000047
    40  H   -0.000127  -0.000011  -0.000002  -0.000510   0.000049  -0.005041
    41  H    0.000023  -0.000007  -0.000047   0.002937   0.003797   0.004497
    42  H   -0.000245   0.000008   0.000127  -0.008506   0.002573  -0.000434
    43  H    0.000459  -0.000019  -0.000126   0.005806   0.000406   0.005103
    44  H   -0.036910   0.004671   0.000283   0.006897  -0.000125  -0.000017
    45  H    0.352967  -0.035848   0.004871   0.000442   0.000010   0.000000
    46  H   -0.034554   0.357519  -0.037175   0.005593  -0.000126   0.000000
    47  H    0.004084  -0.026455   0.349432  -0.027286   0.002458  -0.000000
    48  H   -0.000000   0.000000  -0.000000   0.000001  -0.000000   0.343025
              25         26         27         28         29         30
     1  C    0.365910   0.365517   0.366270  -0.005305  -0.000002   0.000002
     2  C   -0.033216  -0.035082  -0.032678  -0.044961   0.000459  -0.000200
     3  C   -0.002311   0.003137  -0.002800   0.344851  -0.001702  -0.000139
     4  C    0.000185  -0.000188  -0.000026  -0.032160  -0.036279  -0.030370
     5  C    0.000001   0.000002   0.000001  -0.007598   0.359210   0.363020
     6  C    0.000007  -0.000015   0.000020   0.004554   0.004151  -0.005342
     7  C   -0.000000  -0.000000  -0.000000  -0.000215   0.000576   0.000180
     8  C   -0.000000  -0.000000   0.000000  -0.000003   0.000075  -0.000144
     9  N    0.000000   0.000000  -0.000000  -0.000000  -0.000001   0.000034
    10  C   -0.000000  -0.000000   0.000000   0.000000   0.000000  -0.000000
    11  C    0.000000  -0.000000  -0.000000  -0.000000  -0.000001   0.000003
    12  C   -0.000000  -0.000000   0.000000  -0.000000   0.000002  -0.000414
    13  C    0.000000   0.000000  -0.000000   0.000001   0.000049   0.000503
    14  C   -0.000212   0.000358  -0.000165   0.000765  -0.000163  -0.000065
    15  C    0.000003   0.000003   0.000002   0.000010   0.000002  -0.000001
    16  C    0.000000  -0.000000   0.000000   0.000000  -0.000000   0.000000
    17  C    0.000000  -0.000000   0.000000   0.000000   0.000000   0.000000
    18  C   -0.000000  -0.000000  -0.000000   0.000000   0.000000   0.000000
    19  C   -0.000000  -0.000000   0.000000   0.000000   0.000000  -0.000000
    20  C    0.000000   0.000000  -0.000000  -0.000000  -0.000000   0.000000
    21  C   -0.000000  -0.000000  -0.000000   0.000000   0.000000  -0.000000
    22  C   -0.000000  -0.000000   0.000000   0.000000   0.000000  -0.000000
    23  Cl   0.000000  -0.000000   0.000000   0.000000   0.000000   0.000000
    24  C    0.001066  -0.001516  -0.001096   0.004791  -0.000014   0.000031
    25  H    0.582186  -0.029498  -0.034154   0.002579  -0.000000   0.000000
    26  H   -0.029498   0.582432  -0.030677   0.000048   0.000000  -0.000000
    27  H   -0.034154  -0.030677   0.581424   0.000995   0.000000  -0.000000
    28  H    0.002579   0.000048   0.000995   0.613586   0.006205   0.000247
    29  H   -0.000000   0.000000   0.000000   0.006205   0.593651  -0.030438
    30  H    0.000000  -0.000000  -0.000000   0.000247  -0.030438   0.577792
    31  H   -0.000000  -0.000000   0.000000   0.000123  -0.029061  -0.034408
    32  H    0.000000   0.000000  -0.000000   0.000001   0.000000   0.000016
    33  H    0.000000   0.000000  -0.000000   0.000000  -0.000000   0.000000
    34  H   -0.000000  -0.000000   0.000000  -0.000000   0.000000  -0.000000
    35  H    0.000000  -0.000000  -0.000000  -0.000000   0.000000  -0.000000
    36  H    0.000000  -0.000000  -0.000000  -0.000000  -0.000000  -0.000000
    37  H    0.000000   0.000000  -0.000000   0.000000   0.000000   0.000002
    38  H   -0.000000  -0.000000   0.000000  -0.000000   0.000000  -0.000110
    39  H   -0.000000   0.000000   0.000000   0.000005  -0.000122   0.006284
    40  H   -0.000000  -0.000002   0.000000  -0.000000  -0.000000   0.000000
    41  H   -0.000000   0.000000  -0.000000  -0.000000  -0.000000   0.000001
    42  H    0.000000  -0.000000  -0.000000  -0.000000  -0.000000   0.000000
    43  H    0.000000   0.000001  -0.000002  -0.000000   0.000000   0.000000
    44  H   -0.000000   0.000000   0.000000  -0.000000  -0.000000   0.000000
    45  H   -0.000000   0.000000  -0.000000  -0.000000  -0.000000  -0.000000
    46  H    0.000000   0.000000  -0.000000  -0.000000   0.000000   0.000000
    47  H   -0.000000   0.000000  -0.000000   0.000000  -0.000000  -0.000000
    48  H    0.000076   0.005624   0.000209  -0.000217  -0.000000  -0.000000
              31         32         33         34         35         36
     1  C    0.000003  -0.000000  -0.000000   0.000000   0.000000  -0.000000
     2  C   -0.000205  -0.000012  -0.000000   0.000000   0.000000  -0.000000
     3  C    0.000727  -0.000022  -0.000000   0.000000   0.000000   0.000000
     4  C   -0.031404   0.000656   0.000001  -0.000003  -0.000000   0.000000
     5  C    0.365262   0.000046  -0.000000  -0.000000   0.000000   0.000000
     6  C   -0.004454  -0.002318  -0.000001   0.000003   0.000002  -0.000010
     7  C    0.004999  -0.040415   0.000086   0.000452  -0.000209  -0.000467
     8  C    0.003181   0.369088   0.001741  -0.000998   0.002277   0.004659
     9  N   -0.000197  -0.057110  -0.057746  -0.044001  -0.043590  -0.060200
    10  C   -0.000003  -0.003325   0.370045   0.378059   0.378104  -0.003231
    11  C    0.000025   0.004002   0.001680   0.002382  -0.001180   0.368749
    12  C    0.000034  -0.000410   0.000201  -0.000214   0.000397  -0.031642
    13  C   -0.000079   0.005649   0.000024  -0.000006  -0.000001   0.005476
    14  C    0.000106   0.001080  -0.000001   0.000002   0.000000   0.000000
    15  C    0.000006   0.000294  -0.000011   0.000002   0.000000  -0.000000
    16  C   -0.000000   0.000010   0.000000  -0.000000  -0.000000   0.000000
    17  C   -0.000000  -0.000000  -0.000000   0.000000   0.000000  -0.000000
    18  C   -0.000000   0.000000  -0.000000   0.000000   0.000000   0.000000
    19  C    0.000000  -0.000000   0.000000  -0.000000  -0.000000   0.000000
    20  C   -0.000000  -0.000000  -0.000000   0.000000   0.000000  -0.000000
    21  C    0.000000   0.000000  -0.000000  -0.000000   0.000000   0.000000
    22  C    0.000000   0.000000   0.000001  -0.000000  -0.000000  -0.000000
    23  Cl  -0.000000   0.000008   0.000048  -0.000000  -0.000001   0.000013
    24  C    0.000002  -0.000058   0.000000  -0.000000   0.000000   0.000000
    25  H   -0.000000   0.000000   0.000000  -0.000000   0.000000   0.000000
    26  H   -0.000000   0.000000   0.000000  -0.000000  -0.000000  -0.000000
    27  H    0.000000  -0.000000  -0.000000   0.000000  -0.000000  -0.000000
    28  H    0.000123   0.000001   0.000000  -0.000000  -0.000000  -0.000000
    29  H   -0.029061   0.000000  -0.000000   0.000000   0.000000  -0.000000
    30  H   -0.034408   0.000016   0.000000  -0.000000  -0.000000  -0.000000
    31  H    0.570489   0.000089  -0.000000   0.000004  -0.000000   0.000000
    32  H    0.000089   0.582409   0.000015   0.003964   0.000137  -0.000164
    33  H   -0.000000   0.000015   0.617615  -0.042988  -0.042873  -0.000013
    34  H    0.000004   0.003964  -0.042988   0.575943  -0.023968   0.000118
    35  H   -0.000000   0.000137  -0.042873  -0.023968   0.576439   0.003974
    36  H    0.000000  -0.000164  -0.000013   0.000118   0.003974   0.589057
    37  H   -0.000001   0.000010  -0.000002   0.000003   0.000000  -0.005361
    38  H    0.000028  -0.000119  -0.000014   0.000001   0.000001  -0.000106
    39  H   -0.000390  -0.000163   0.000003  -0.000002  -0.000002  -0.000153
    40  H   -0.000000  -0.000016   0.000000  -0.000000  -0.000000  -0.000000
    41  H   -0.000002  -0.000013   0.000062  -0.000008  -0.000000   0.000000
    42  H   -0.000000  -0.000001  -0.000000   0.000000   0.000000  -0.000000
    43  H   -0.000000   0.000000  -0.000000   0.000000   0.000000   0.000000
    44  H   -0.000000   0.000000  -0.000000   0.000000   0.000000  -0.000000
    45  H    0.000000  -0.000000   0.000000  -0.000000  -0.000000  -0.000000
    46  H   -0.000000   0.000000  -0.000000   0.000000   0.000000   0.000000
    47  H    0.000000  -0.000000   0.000000  -0.000000  -0.000000   0.000000
    48  H   -0.000000   0.000001  -0.000000   0.000000  -0.000000  -0.000000
              37         38         39         40         41         42
     1  C   -0.000000   0.000000  -0.000000   0.000001   0.000002   0.000000
     2  C   -0.000000  -0.000006  -0.000012   0.000255  -0.000210   0.000018
     3  C   -0.000000   0.000036  -0.000168  -0.000007  -0.000019  -0.000014
     4  C   -0.000001  -0.000588   0.003117  -0.000164   0.000499  -0.000037
     5  C   -0.000002   0.000200  -0.001622   0.000002   0.000000   0.000001
     6  C   -0.000183  -0.000109  -0.003224   0.002931  -0.007412   0.001786
     7  C    0.003081  -0.045552  -0.048457   0.000253   0.012406  -0.000443
     8  C    0.000849  -0.001500   0.000769   0.000111   0.007063   0.000005
     9  N    0.004594   0.001622   0.000825  -0.000003  -0.000571   0.000003
    10  C   -0.000137   0.000024  -0.000005   0.000000  -0.000020   0.000000
    11  C   -0.032800  -0.001095   0.000451  -0.000000   0.000087  -0.000008
    12  C    0.356873  -0.041319  -0.044572   0.000002   0.000055  -0.000048
    13  C   -0.036868   0.359407   0.360748  -0.000006  -0.000212   0.000212
    14  C    0.000001   0.001429  -0.000229  -0.038493  -0.032240  -0.001140
    15  C   -0.000000   0.001278  -0.000096   0.365325   0.359286  -0.038731
    16  C    0.000000  -0.001347   0.000049  -0.046049  -0.036617   0.365335
    17  C   -0.000000   0.000080  -0.000001  -0.002627  -0.003478  -0.030717
    18  C   -0.000000   0.000000   0.000000   0.003411  -0.000176   0.003238
    19  C    0.000000  -0.000000   0.000000  -0.000127   0.000023  -0.000245
    20  C    0.000000   0.000000  -0.000000  -0.000011  -0.000007   0.000008
    21  C   -0.000000   0.000001   0.000000  -0.000002  -0.000047   0.000127
    22  C    0.000000  -0.000145   0.000001  -0.000510   0.002937  -0.008506
    23  Cl  -0.000021   0.002109   0.000086   0.000049   0.003797   0.002573
    24  C   -0.000000  -0.000120   0.000047  -0.005041   0.004497  -0.000434
    25  H    0.000000  -0.000000  -0.000000  -0.000000  -0.000000   0.000000
    26  H    0.000000  -0.000000   0.000000  -0.000002   0.000000  -0.000000
    27  H   -0.000000   0.000000   0.000000   0.000000  -0.000000  -0.000000
    28  H    0.000000  -0.000000   0.000005  -0.000000  -0.000000  -0.000000
    29  H    0.000000   0.000000  -0.000122  -0.000000  -0.000000  -0.000000
    30  H    0.000002  -0.000110   0.006284   0.000000   0.000001   0.000000
    31  H   -0.000001   0.000028  -0.000390  -0.000000  -0.000002  -0.000000
    32  H    0.000010  -0.000119  -0.000163  -0.000016  -0.000013  -0.000001
    33  H   -0.000002  -0.000014   0.000003   0.000000   0.000062  -0.000000
    34  H    0.000003   0.000001  -0.000002  -0.000000  -0.000008   0.000000
    35  H    0.000000   0.000001  -0.000002  -0.000000  -0.000000   0.000000
    36  H   -0.005361  -0.000106  -0.000153  -0.000000   0.000000  -0.000000
    37  H    0.602787  -0.000105  -0.001496  -0.000000  -0.000003  -0.000000
    38  H   -0.000105   0.630795  -0.058091  -0.000004  -0.001038   0.005354
    39  H   -0.001496  -0.058091   0.655507   0.000000   0.000103  -0.000077
    40  H   -0.000000  -0.000004   0.000000   0.618027  -0.034981   0.005874
    41  H   -0.000003  -0.001038   0.000103  -0.034981   0.566339  -0.006569
    42  H   -0.000000   0.005354  -0.000077   0.005874  -0.006569   0.571746
    43  H    0.000000   0.000052  -0.000002  -0.004579   0.005257  -0.035100
    44  H   -0.000000   0.000000  -0.000000   0.000420   0.000008   0.000179
    45  H    0.000000  -0.000000   0.000000   0.000002   0.000000   0.000002
    46  H   -0.000000   0.000000   0.000000  -0.000000   0.000000  -0.000000
    47  H    0.000000  -0.000000   0.000000   0.000000   0.000002   0.000002
    48  H    0.000000   0.000002  -0.000000   0.003342   0.000123   0.000041
              43         44         45         46         47         48
     1  C    0.000010  -0.000000   0.000000   0.000000   0.000000  -0.007410
     2  C   -0.000237  -0.000000  -0.000000   0.000000  -0.000000  -0.037018
     3  C   -0.000009   0.000000  -0.000000  -0.000000  -0.000000   0.005194
     4  C    0.000005  -0.000000   0.000000   0.000000  -0.000000   0.000805
     5  C    0.000000   0.000000   0.000000  -0.000000   0.000000   0.000010
     6  C   -0.000020   0.000001   0.000000   0.000000   0.000000   0.003897
     7  C   -0.000056  -0.000000   0.000000  -0.000000   0.000000  -0.000210
     8  C   -0.000003  -0.000000   0.000000   0.000000  -0.000000  -0.000004
     9  N    0.000000   0.000000  -0.000000   0.000000  -0.000000  -0.000000
    10  C    0.000000   0.000000  -0.000000   0.000000  -0.000000   0.000000
    11  C    0.000000  -0.000000   0.000000  -0.000000   0.000000  -0.000000
    12  C   -0.000000  -0.000000   0.000000  -0.000000   0.000000  -0.000000
    13  C    0.000018   0.000000  -0.000000  -0.000000   0.000000   0.000002
    14  C   -0.002845  -0.000024  -0.000000  -0.000000  -0.000000  -0.040572
    15  C   -0.042919   0.000265   0.000000  -0.000000   0.000000  -0.005270
    16  C    0.364755  -0.008698  -0.000145   0.000002  -0.000147  -0.000004
    17  C   -0.040864  -0.042188   0.004550   0.000396   0.003420  -0.000051
    18  C   -0.006794   0.356347  -0.032123   0.004684   0.000681  -0.000001
    19  C    0.000459  -0.036910   0.352967  -0.034554   0.004084  -0.000000
    20  C   -0.000019   0.004671  -0.035848   0.357519  -0.026455   0.000000
    21  C   -0.000126   0.000283   0.004871  -0.037175   0.349432  -0.000000
    22  C    0.005806   0.006897   0.000442   0.005593  -0.027286   0.000001
    23  Cl   0.000406  -0.000125   0.000010  -0.000126   0.002458  -0.000000
    24  C    0.005103  -0.000017   0.000000   0.000000  -0.000000   0.343025
    25  H    0.000000  -0.000000  -0.000000   0.000000  -0.000000   0.000076
    26  H    0.000001   0.000000   0.000000   0.000000   0.000000   0.005624
    27  H   -0.000002   0.000000  -0.000000  -0.000000  -0.000000   0.000209
    28  H   -0.000000  -0.000000  -0.000000  -0.000000   0.000000  -0.000217
    29  H    0.000000  -0.000000  -0.000000   0.000000  -0.000000  -0.000000
    30  H    0.000000   0.000000  -0.000000   0.000000  -0.000000  -0.000000
    31  H   -0.000000  -0.000000   0.000000  -0.000000   0.000000  -0.000000
    32  H    0.000000   0.000000  -0.000000   0.000000  -0.000000   0.000001
    33  H   -0.000000  -0.000000   0.000000  -0.000000   0.000000  -0.000000
    34  H    0.000000   0.000000  -0.000000   0.000000  -0.000000   0.000000
    35  H    0.000000   0.000000  -0.000000   0.000000  -0.000000  -0.000000
    36  H    0.000000  -0.000000  -0.000000   0.000000   0.000000  -0.000000
    37  H    0.000000  -0.000000   0.000000  -0.000000   0.000000   0.000000
    38  H    0.000052   0.000000  -0.000000   0.000000  -0.000000   0.000002
    39  H   -0.000002  -0.000000   0.000000   0.000000   0.000000  -0.000000
    40  H   -0.004579   0.000420   0.000002  -0.000000   0.000000   0.003342
    41  H    0.005257   0.000008   0.000000   0.000000   0.000002   0.000123
    42  H   -0.035100   0.000179   0.000002  -0.000000   0.000002   0.000041
    43  H    0.605632   0.004852  -0.000005  -0.000000   0.000002   0.002241
    44  H    0.004852   0.587539  -0.004321  -0.000180   0.000009   0.000150
    45  H   -0.000005  -0.004321   0.582196  -0.004249  -0.000158  -0.000000
    46  H   -0.000000  -0.000180  -0.004249   0.578602  -0.004675  -0.000000
    47  H    0.000002   0.000009  -0.000158  -0.004675   0.544702   0.000000
    48  H    0.002241   0.000150  -0.000000  -0.000000   0.000000   0.617810
 Mulliken charges:
               1
     1  C   -0.482462
     2  C    0.137444
     3  C   -0.203755
     4  C    0.106558
     5  C   -0.472819
     6  C   -0.090543
     7  C   -0.007857
     8  C    0.124094
     9  N   -0.604086
    10  C   -0.240783
    11  C    0.137564
    12  C   -0.146959
    13  C   -0.314117
    14  C    0.109115
    15  C   -0.313251
    16  C   -0.327060
    17  C    0.143249
    18  C   -0.155356
    19  C   -0.116340
    20  C   -0.121879
    21  C   -0.098978
    22  C   -0.285912
    23  Cl   0.074751
    24  C   -0.209923
    25  H    0.147378
    26  H    0.139855
    27  H    0.152675
    28  H    0.111699
    29  H    0.133402
    30  H    0.153518
    31  H    0.155125
    32  H    0.136672
    33  H    0.152129
    34  H    0.151254
    35  H    0.150493
    36  H    0.129302
    37  H    0.108779
    38  H    0.148947
    39  H    0.130889
    40  H    0.132617
    41  H    0.161076
    42  H    0.165567
    43  H    0.138979
    44  H    0.130843
    45  H    0.131808
    46  H    0.134164
    47  H    0.153930
    48  H    0.108205
 Sum of Mulliken charges =  -0.00000
 Mulliken charges with hydrogens summed into heavy atoms:
               1
     1  C   -0.042555
     2  C    0.137444
     3  C   -0.092056
     4  C    0.106558
     5  C   -0.030773
     6  C   -0.090543
     7  C   -0.007857
     8  C    0.260765
     9  N   -0.604086
    10  C    0.213092
    11  C    0.266866
    12  C   -0.038180
    13  C   -0.034280
    14  C    0.109115
    15  C   -0.019558
    16  C   -0.022513
    17  C    0.143249
    18  C   -0.024513
    19  C    0.015468
    20  C    0.012285
    21  C    0.054952
    22  C   -0.285912
    23  Cl   0.074751
    24  C   -0.101718
 Electronic spatial extent (au):  <R**2>=           9804.8520
 Charge=              0.0000 electrons
 Dipole moment (field-independent basis, Debye):
    X=             -0.6995    Y=             -0.4168    Z=              1.7925  Tot=              1.9687
 Quadrupole moment (field-independent basis, Debye-Ang):
   XX=           -138.4889   YY=           -134.6922   ZZ=           -148.6347
   XY=              4.1298   XZ=             -2.4912   YZ=              4.5057
 Traceless Quadrupole moment (field-independent basis, Debye-Ang):
   XX=              2.1164   YY=              5.9131   ZZ=             -8.0295
   XY=              4.1298   XZ=             -2.4912   YZ=              4.5057
 Octapole moment (field-independent basis, Debye-Ang**2):
  XXX=            -75.7648  YYY=             30.6975  ZZZ=              5.7140  XYY=              1.6457
  XXY=            -22.1058  XXZ=             18.6071  XZZ=             12.4046  YZZ=             26.1658
  YYZ=             24.9137  XYZ=             12.4199
 Hexadecapole moment (field-independent basis, Debye-Ang**3):
 XXXX=          -7087.9402 YYYY=          -4536.9343 ZZZZ=           -809.4780 XXXY=            -51.7562
 XXXZ=           -127.5923 YYYX=             25.3006 YYYZ=             65.7119 ZZZX=             30.0189
 ZZZY=             34.1535 XXYY=          -2039.9147 XXZZ=          -1487.6940 YYZZ=           -920.9760
 XXYZ=             -4.0946 YYXZ=             11.4777 ZZXY=             25.4602
 N-N= 2.110715396795D+03 E-N=-7.419834623111D+03  KE= 1.361478384199D+03
 Unable to Open any file for archive entry.
 1\1\GINC-N2\SP\RB3LYP TD-FC\6-31G\C22H24Cl1N1\HPCMGAC13\13-Jun-2025\0\
 \# td=(50-50,nstates=3) b3lyp/6-31g\\[No Title]\\0,1\C,0,-3.000682,4.6
 60082,0.221991\C,0,-2.657947,3.187593,0.154962\C,0,-3.634023,2.237018,
 -0.182397\C,0,-3.339769,0.870701,-0.259908\C,0,-4.443964,-0.107453,-0.
 604491\C,0,-2.018607,0.417301,0.006017\C,0,-1.703171,-1.043742,-0.1045
 25\C,0,-1.726935,-1.842633,0.984805\N,0,-1.490605,-3.223016,0.949661\C
 ,0,-1.286566,-3.969475,2.186381\C,0,-1.193279,-3.802406,-0.291172\C,0,
 -1.143392,-3.096024,-1.435025\C,0,-1.375133,-1.599904,-1.491291\C,0,-1
 .024786,1.365869,0.347406\C,0,0.41789,0.976589,0.628566\C,0,1.3682,1.2
 97279,-0.565689\C,0,2.829348,1.071632,-0.239235\C,0,3.634682,2.153356,
 0.171114\C,0,4.981065,1.98843,0.505034\C,0,5.566748,0.719859,0.433794\
 C,0,4.797256,-0.375656,0.028969\C,0,3.455435,-0.181336,-0.294447\Cl,0,
 2.50001,-1.660027,-0.816139\C,0,-1.365132,2.729087,0.420801\H,0,-3.917
 291,4.833568,0.798636\H,0,-2.195579,5.236161,0.689661\H,0,-3.16705,5.0
 78264,-0.779954\H,0,-4.651378,2.567018,-0.379992\H,0,-5.405192,0.40794
 7,-0.696046\H,0,-4.251336,-0.62224,-1.554091\H,0,-4.543752,-0.886495,0
 .159251\H,0,-1.954862,-1.444313,1.968294\H,0,-0.247888,-3.919583,2.547
 51\H,0,-1.942002,-3.574205,2.968555\H,0,-1.545712,-5.020971,2.028959\H
 ,0,-1.020007,-4.872772,-0.266158\H,0,-0.935225,-3.617307,-2.363911\H,0
 ,-0.489365,-1.084846,-1.903227\H,0,-2.188701,-1.35831,-2.199138\H,0,0.
 77673,1.52961,1.507083\H,0,0.489524,-0.087812,0.863424\H,0,1.070856,0.
 689954,-1.426795\H,0,1.228949,2.346712,-0.851633\H,0,3.183658,3.140268
 ,0.220586\H,0,5.570389,2.845294,0.814685\H,0,6.612142,0.578696,0.68712
 \H,0,5.229946,-1.366594,-0.036512\H,0,-0.596246,3.446536,0.700483\\Ver
 sion=ES64L-G16RevC.02\State=1-A\HF=-1367.4922169\RMSD=8.627e-09\PG=C01
  [X(C22H24Cl1N1)]\\@
 The archive entry for this job was punched.


 NEVER LISTEN TO CRITICISM
 OR YOU'LL BE DOIN' EVERYBODY ELSE'S THING BUT BUT YOUR OWN.

                                               -- ANDY CAPP
 Job cpu time:       0 days  0 hours 34 minutes 26.9 seconds.
 Elapsed time:       0 days  0 hours  2 minutes 13.2 seconds.
 File lengths (MBytes):  RWF=    692 Int=      0 D2E=      0 Chk=     23 Scr=      2
 Normal termination of Gaussian 16 at Fri Jun 13 11:37:52 2025.
