 Entering Gaussian System, Link 0=g16
 Input=M2353.gjf
 Output=M2353.log
 Initial command:
 /hpc/softwares/Gaussian/g16/l1.exe "/hpc/home/hpcmgac13/pbs.11134.admin1.x8z/Gau-189437.inp" -scrdir="/hpc/home/hpcmgac13/pbs.11134.admin1.x8z/"
 Default linda workers: n2
 Default is to use  16 SMP processors on each worker.
 Entering Link 1 = /hpc/softwares/Gaussian/g16/l1.exe PID=    189438.
  
 Copyright (c) 1988-2021, Gaussian, Inc.  All Rights Reserved.
  
 This is part of the Gaussian(R) 16 program.  It is based on
 the Gaussian(R) 09 system (copyright 2009, Gaussian, Inc.),
 the Gaussian(R) 03 system (copyright 2003, Gaussian, Inc.),
 the Gaussian(R) 98 system (copyright 1998, Gaussian, Inc.),
 the Gaussian(R) 94 system (copyright 1995, Gaussian, Inc.),
 the Gaussian 92(TM) system (copyright 1992, Gaussian, Inc.),
 the Gaussian 90(TM) system (copyright 1990, Gaussian, Inc.),
 the Gaussian 88(TM) system (copyright 1988, Gaussian, Inc.),
 the Gaussian 86(TM) system (copyright 1986, Carnegie Mellon
 University), and the Gaussian 82(TM) system (copyright 1983,
 Carnegie Mellon University). Gaussian is a federally registered
 trademark of Gaussian, Inc.
  
 This software contains proprietary and confidential information,
 including trade secrets, belonging to Gaussian, Inc.
  
 This software is provided under written license and may be
 used, copied, transmitted, or stored only in accord with that
 written license.
  
 The following legend is applicable only to US Government
 contracts under FAR:
  
                    RESTRICTED RIGHTS LEGEND
  
 Use, reproduction and disclosure by the US Government is
 subject to restrictions as set forth in subparagraphs (a)
 and (c) of the Commercial Computer Software - Restricted
 Rights clause in FAR 52.227-19.
  
 Gaussian, Inc.
 340 Quinnipiac St., Bldg. 40, Wallingford CT 06492
  
  
 ---------------------------------------------------------------
 Warning -- This program may not be used in any manner that
 competes with the business of Gaussian, Inc. or will provide
 assistance to any competitor of Gaussian, Inc.  The licensee
 of this program is prohibited from giving any competitor of
 Gaussian, Inc. access to this program.  By using this program,
 the user acknowledges that Gaussian, Inc. is engaged in the
 business of creating and licensing software in the field of
 computational chemistry and represents and warrants to the
 licensee that it is not a competitor of Gaussian, Inc. and that
 it will not use this program in any manner prohibited above.
 ---------------------------------------------------------------
  

 Cite this work as:
 Gaussian 16, Revision C.02,
 M. J. Frisch, G. W. Trucks, H. B. Schlegel, G. E. Scuseria, 
 M. A. Robb, J. R. Cheeseman, G. Scalmani, V. Barone, 
 G. A. Petersson, H. Nakatsuji, X. Li, M. Caricato, A. V. Marenich, 
 J. Bloino, B. G. Janesko, R. Gomperts, B. Mennucci, H. P. Hratchian, 
 J. V. Ortiz, A. F. Izmaylov, J. L. Sonnenberg, D. Williams-Young, 
 F. Ding, F. Lipparini, F. Egidi, J. Goings, B. Peng, A. Petrone, 
 T. Henderson, D. Ranasinghe, V. G. Zakrzewski, J. Gao, N. Rega, 
 G. Zheng, W. Liang, M. Hada, M. Ehara, K. Toyota, R. Fukuda, 
 J. Hasegawa, M. Ishida, T. Nakajima, Y. Honda, O. Kitao, H. Nakai, 
 T. Vreven, K. Throssell, J. A. Montgomery, Jr., J. E. Peralta, 
 F. Ogliaro, M. J. Bearpark, J. J. Heyd, E. N. Brothers, K. N. Kudin, 
 V. N. Staroverov, T. A. Keith, R. Kobayashi, J. Normand, 
 K. Raghavachari, A. P. Rendell, J. C. Burant, S. S. Iyengar, 
 J. Tomasi, M. Cossi, J. M. Millam, M. Klene, C. Adamo, R. Cammi, 
 J. W. Ochterski, R. L. Martin, K. Morokuma, O. Farkas, 
 J. B. Foresman, and D. J. Fox, Gaussian, Inc., Wallingford CT, 2019.
 
 ******************************************
 Gaussian 16:  ES64L-G16RevC.02  7-Dec-2021
                13-Jun-2025 
 ******************************************
 SetLPE:    new flags="-opt 'Tsnet.Node.lindarsharg: ssh'  -nodelist 'n2.head.cm.mguif.local' -env GAUSS_MDEF=4294967296 -env GAUSS_EXEDIR="/hpc/softwares/Gaussian/g16/bsd:/hpc/softwares/Gaussian/g16""
 Will use up to    1 processors via Linda.
 ----------------------------------
 # td=(50-50,nstates=3) b3lyp/6-31g
 ----------------------------------
 1/38=1,172=1/1;
 2/12=2,17=6,18=5,40=1/2;
 3/5=1,6=6,11=9,25=1,30=1,74=-5/1,2,3,8;
 4//1;
 5/5=2,38=5/2;
 8/6=1,10=2,108=3/1;
 9/41=3,42=1,48=2,70=2/14;
 6/7=2,8=2,9=2,10=2/1;
 99/5=1,9=1/99;
 ----------
 [No Title]
 ----------
 Symbolic Z-matrix:
 Charge =  0 Multiplicity = 1
 C                     0.37621   4.76418   0.3054 
 C                    -0.31195   3.42125   0.19162 
 C                    -1.57828   3.31179  -0.40463 
 C                    -2.24308   2.08459  -0.51572 
 C                    -3.61216   2.03366  -1.16241 
 C                    -1.62933   0.90563  -0.01361 
 C                    -2.32068  -0.41578  -0.15808 
 C                    -3.21393  -0.83506   0.7659 
 N                    -3.89012  -2.05796   0.69993 
 C                    -4.98474  -2.35487   1.61732 
 C                    -3.6338   -2.88797  -0.40226 
 C                    -2.76643  -2.56116  -1.37651 
 C                    -1.98981  -1.25981  -1.39096 
 C                    -0.35103   1.00878   0.57995 
 C                     0.35918  -0.22522   1.13852 
 C                     1.60029  -0.5793    0.38329 
 N                     1.64035  -1.57052  -0.49801 
 O                     3.02996  -1.51242  -0.99343 
 C                     3.62379  -0.47443  -0.31217 
 C                     5.03714  -0.16407  -0.58157 
 Cl                    6.18972  -1.29641   0.41617 
 N                     2.8084    0.11935   0.52888 
 C                     0.28698   2.25608   0.67984 
 H                     0.46685   5.25237  -0.67303 
 H                    -0.18506   5.44843   0.95507 
 H                     1.38266   4.66112   0.72289 
 H                    -2.06097   4.20594  -0.79245 
 H                    -3.87358   3.00538  -1.59311 
 H                    -3.65593   1.28571  -1.96228 
 H                    -4.39179   1.76513  -0.43969 
 H                    -3.44768  -0.23049   1.63651 
 H                    -4.77991  -1.90615   2.59403 
 H                    -5.95516  -1.97697   1.26044 
 H                    -5.06779  -3.43733   1.75529 
 H                    -4.17737  -3.82638  -0.40343 
 H                    -2.59505  -3.26665  -2.18305 
 H                    -0.9049   -1.45842  -1.43355 
 H                    -2.20195  -0.68411  -2.31126 
 H                     0.65021  -0.04219   2.17976 
 H                    -0.3192   -1.08026   1.12688 
 H                     5.30482  -0.33726  -1.62099 
 H                     5.27496   0.84625  -0.26123 
 H                     1.2712    2.30837   1.13638 
 
                          Input orientation:                          
 ---------------------------------------------------------------------
 Center     Atomic      Atomic             Coordinates (Angstroms)
 Number     Number       Type             X           Y           Z
 ---------------------------------------------------------------------
      1          6           0        0.376212    4.764181    0.305401
      2          6           0       -0.311950    3.421245    0.191623
      3          6           0       -1.578279    3.311787   -0.404626
      4          6           0       -2.243075    2.084590   -0.515724
      5          6           0       -3.612161    2.033663   -1.162410
      6          6           0       -1.629329    0.905627   -0.013607
      7          6           0       -2.320680   -0.415778   -0.158078
      8          6           0       -3.213929   -0.835058    0.765904
      9          7           0       -3.890124   -2.057965    0.699932
     10          6           0       -4.984743   -2.354869    1.617321
     11          6           0       -3.633803   -2.887968   -0.402257
     12          6           0       -2.766425   -2.561164   -1.376506
     13          6           0       -1.989809   -1.259810   -1.390958
     14          6           0       -0.351026    1.008784    0.579952
     15          6           0        0.359175   -0.225217    1.138524
     16          6           0        1.600288   -0.579299    0.383290
     17          7           0        1.640351   -1.570519   -0.498014
     18          8           0        3.029961   -1.512416   -0.993430
     19          6           0        3.623790   -0.474431   -0.312166
     20          6           0        5.037142   -0.164072   -0.581571
     21         17           0        6.189724   -1.296411    0.416170
     22          7           0        2.808401    0.119351    0.528883
     23          6           0        0.286977    2.256081    0.679844
     24          1           0        0.466846    5.252365   -0.673033
     25          1           0       -0.185060    5.448434    0.955070
     26          1           0        1.382658    4.661121    0.722893
     27          1           0       -2.060967    4.205943   -0.792449
     28          1           0       -3.873577    3.005384   -1.593106
     29          1           0       -3.655932    1.285713   -1.962281
     30          1           0       -4.391790    1.765131   -0.439694
     31          1           0       -3.447677   -0.230489    1.636513
     32          1           0       -4.779910   -1.906147    2.594033
     33          1           0       -5.955156   -1.976974    1.260439
     34          1           0       -5.067792   -3.437332    1.755288
     35          1           0       -4.177367   -3.826377   -0.403428
     36          1           0       -2.595050   -3.266653   -2.183048
     37          1           0       -0.904900   -1.458421   -1.433546
     38          1           0       -2.201945   -0.684113   -2.311260
     39          1           0        0.650210   -0.042189    2.179763
     40          1           0       -0.319204   -1.080262    1.126881
     41          1           0        5.304821   -0.337257   -1.620985
     42          1           0        5.274961    0.846252   -0.261228
     43          1           0        1.271202    2.308369    1.136376
 ---------------------------------------------------------------------
                    Distance matrix (angstroms):
                    1          2          3          4          5
     1  C    0.000000
     2  C    1.513271   0.000000
     3  C    2.536459   1.403953   0.000000
     4  C    3.836029   2.452800   1.400110   0.000000
     5  C    5.051467   3.827556   2.518832   1.514989   0.000000
     6  C    4.360321   2.847093   2.438259   1.420831   2.554180
     7  C    5.858329   4.345116   3.808764   2.527009   2.945567
     8  C    6.667282   5.183377   4.608884   3.333087   3.479446
     9  N    8.055989   6.563798   5.949698   4.620752   4.504109
    10  C    9.007877   7.565124   6.913990   5.636969   5.373090
    11  C    8.668125   7.154968   6.531627   5.164623   4.980035
    12  C    8.146512   6.653773   6.070238   4.753722   4.676916
    13  C    6.690602   5.218434   4.694860   3.466293   3.678481
    14  C    3.835005   2.443828   2.789152   2.436742   3.836822
    15  C    5.058505   3.826711   4.318036   3.852720   5.115501
    16  C    5.482445   4.438214   5.085730   4.761929   6.032113
    17  N    6.509374   5.404145   5.848522   5.333023   6.404720
    18  O    6.937220   6.075667   6.697425   6.400903   7.531336
    19  C    6.194450   5.560588   6.434712   6.403915   7.705351
    20  C    6.840955   6.485762   7.475072   7.619867   8.943034
    21  Cl   8.398807   8.036073   9.069237   9.133000  10.471784
    22  N    5.247850   4.555528   5.505093   5.520034   6.910042
    23  C    2.537466   1.398099   2.402035   2.803561   4.318176
    24  H    1.097211   2.169598   2.832035   4.171716   5.218987
    25  H    1.097861   2.169896   2.890518   4.208813   5.281042
    26  H    1.094465   2.165926   3.443712   4.617210   5.950304
    27  H    2.730704   2.154811   1.087616   2.147063   2.694787
    28  H    4.975782   4.005419   2.602837   2.160359   1.094568
    29  H    5.787945   4.514645   3.293616   2.174143   1.095965
    30  H    5.681840   4.448187   3.210797   2.173663   1.096471
    31  H    6.429675   5.025500   4.495399   3.382718   3.603805
    32  H    8.735943   7.356313   6.816834   5.659691   5.567459
    33  H    9.297392   7.882189   7.064028   5.781920   5.238801
    34  H    9.950084   8.491358   7.898895   6.605160   6.368957
    35  H    9.748600   8.235506   7.596621   6.220420   5.935957
    36  H    8.917122   7.455172   6.890028   5.616018   5.492683
    37  H    6.586802   5.177249   4.926155   3.896927   4.426898
    38  H    6.570975   5.166282   4.471178   3.300206   3.270301
    39  H    5.166188   4.107776   4.784808   4.489982   5.800611
    40  H    5.942722   4.597643   4.818805   4.051632   5.077494
    41  H    7.350294   6.997142   7.884930   8.003604   9.238188
    42  H    6.298331   6.168406   7.284664   7.623589   9.011271
    43  H    2.742725   2.153467   3.391324   3.889686   5.404361
                    6          7          8          9         10
     6  C    0.000000
     7  C    1.498315   0.000000
     8  C    2.479633   1.351826   0.000000
     9  N    3.795156   2.428191   1.398962   0.000000
    10  C    4.954752   3.742906   2.484053   1.458748   0.000000
    11  C    4.308170   2.809918   2.399028   1.403362   2.487555
    12  C    3.894756   2.507177   2.787404   2.414022   3.731822
    13  C    2.591555   1.530313   2.516135   2.935995   4.383894
    14  C    1.413157   2.540394   3.410358   4.684502   5.819075
    15  C    2.561320   2.983138   3.643875   4.648427   5.772532
    16  C    3.576725   3.961541   4.836165   5.694852   6.930953
    17  N    4.129983   4.139897   5.069756   5.679686   6.998694
    18  O    5.340034   5.525377   6.522287   7.145115   8.471200
    19  C    5.439573   5.946756   6.931572   7.745374   9.020300
    20  C    6.775594   7.374296   8.387257   9.215485  10.491563
    21  Cl   8.134572   8.575095   9.421457  10.112558  11.288570
    22  N    4.539380   5.202475   6.102093   7.045580   8.248609
    23  C    2.444755   3.826332   4.671069   6.004962   7.066170
    24  H    4.870618   6.337454   7.257779   8.620275   9.635121
    25  H    4.864293   6.339476   6.977973   8.374880   9.185155
    26  H    4.870137   6.345528   7.165085   8.541011   9.516718
    27  H    3.418332   4.672278   5.400877   6.693994   7.576260
    28  H    3.455495   4.021833   4.555113   5.558399   6.346168
    29  H    2.837061   2.816579   3.483680   4.280468   5.275711
    30  H    2.924293   3.020789   3.098678   4.020756   4.642984
    31  H    2.705558   2.127207   1.085404   2.100622   2.622200
    32  H    4.963066   3.980343   2.634689   2.098186   1.094200
    33  H    5.352136   4.202254   3.010459   2.141281   1.100850
    34  H    5.814921   4.509699   3.344775   2.098412   1.094376
    35  H    5.388536   3.890973   3.353139   2.104090   2.626903
    36  H    4.800730   3.507602   3.871948   3.383743   4.580916
    37  H    2.851271   2.172178   3.249273   3.717895   5.172671
    38  H    2.852082   2.173084   3.242813   3.715467   5.095992
    39  H    3.302351   3.798849   4.190371   5.183424   6.116987
    40  H    2.638351   2.469527   2.927433   3.726883   4.861318
    41  H    7.225708   7.764955   8.860821   9.638180  10.974175
    42  H    6.908984   7.700462   8.714531   9.662147  10.910438
    43  H    3.420998   4.690224   5.489516   6.774558   7.817541
                   11         12         13         14         15
    11  C    0.000000
    12  C    1.344733   0.000000
    13  C    2.516177   1.515541   0.000000
    14  C    5.189030   4.733541   3.422954   0.000000
    15  C    5.040647   4.642349   3.603663   1.529427   0.000000
    16  C    5.774318   5.108116   4.062000   2.523551   1.495364
    17  N    5.437053   4.601391   3.751260   3.432258   2.475784
    18  O    6.829889   5.902941   5.041818   4.501450   3.651740
    19  C    7.648917   6.806036   5.770018   4.335316   3.581106
    20  C    9.090492   8.202050   7.157778   5.635342   4.984560
    21  Cl   9.985217   9.220949   8.376862   6.937014   5.971981
    22  N    7.170285   6.472585   5.348896   3.282633   2.547371
    23  C    6.557797   6.062812   4.672629   1.404555   2.524369
    24  H    9.118863   8.485290   6.997070   4.499652   5.770376
    25  H    9.123144   8.732317   7.332224   4.458559   5.702645
    26  H    9.133432   8.589748   7.134376   4.045449   5.009647
    27  H    7.276650   6.828802   5.498885   3.876752   5.405638
    28  H    6.017243   5.679715   4.667047   4.595319   5.984545
    29  H    4.455758   3.991593   3.095491   4.178761   5.293296
    30  H    4.714581   4.715534   3.978025   4.235506   5.387386
    31  H    3.354612   3.869681   3.514322   3.498766   3.839289
    32  H    3.354890   4.499817   4.907399   5.671716   5.599485
    33  H    2.997190   4.178847   4.823713   6.386242   6.553952
    34  H    2.648231   3.983980   4.910646   6.587658   6.336407
    35  H    1.084470   2.130353   3.513957   6.243933   5.993845
    36  H    2.096098   1.085170   2.240790   5.563198   5.386151
    37  H    3.248703   2.164387   1.103761   3.232345   3.119971
    38  H    3.248305   2.171572   1.106067   3.827650   4.320987
    39  H    5.754829   5.537660   4.604601   2.160188   1.096531
    40  H    4.073405   3.801172   3.026991   2.159689   1.091529
    41  H    9.374989   8.375592   7.356334   6.216475   5.664526
    42  H    9.660764   8.804443   7.647789   5.690846   5.222289
    43  H    7.309472   6.806567   5.454678   2.151779   2.692741
                   16         17         18         19         20
    16  C    0.000000
    17  N    1.326959   0.000000
    18  O    2.193178   1.476424   0.000000
    19  C    2.142246   2.273759   1.376287   0.000000
    20  C    3.593791   3.677399   2.452842   1.471892   0.000000
    21  Cl   4.645240   4.648404   3.466660   2.791083   1.898980
    22  N    1.403156   2.296632   2.242585   1.313316   2.506137
    23  C    3.138807   4.226327   4.952310   4.424263   5.478355
    24  H    6.033972   6.925279   7.241165   6.549253   7.087578
    25  H    6.312524   7.396572   7.911160   7.154967   7.818752
    26  H    5.255920   6.355341   6.616036   5.698062   6.191879
    27  H    6.138867   6.866874   7.658823   7.379230   8.338144
    28  H    6.835151   7.248553   8.272180   8.364235   9.511549
    29  H    6.050440   6.192960   7.312275   7.669116   8.920637
    30  H    6.486806   6.893235   8.132117   8.323546   9.625316
    31  H    5.212887   5.678020   7.107723   7.339108   8.770203
    32  H    6.881485   7.133944   8.603430   9.006552  10.463928
    33  H    7.733539   7.806990   9.275132   9.822776  11.292043
    34  H    7.383361   7.318575   8.765521   9.412584  10.875883
    35  H    6.674110   6.240488   7.592634   8.491285   9.917227
    36  H    5.604358   4.863623   6.011097   7.068994   8.392919
    37  H    3.217097   2.714054   3.959766   4.768098   6.140771
    38  H    4.661391   4.340140   5.458535   6.162754   7.461008
    39  H    2.102011   3.238312   4.230122   3.903680   5.185074
    40  H    2.118571   2.592391   3.987403   4.240883   5.696372
    41  H    4.218918   4.026207   2.636250   2.134874   1.087210
    42  H    3.993848   4.371183   3.337583   2.114986   1.086247
    43  H    3.002343   4.225313   4.714627   3.921342   4.821474
                   21         22         23         24         25
    21  Cl   0.000000
    22  N    3.667483   0.000000
    23  C    6.894356   3.308471   0.000000
    24  H    8.764939   5.768476   3.292468   0.000000
    25  H    9.296301   6.127118   3.238778   1.764694   0.000000
    26  H    7.661211   4.764248   2.643215   1.771127   1.769607
    27  H    9.990524   6.492834   3.388576   2.738448   2.848971
    28  H   11.127114   7.581613   4.799788   4.973402   5.105571
    29  H   10.452815   7.025233   4.844478   5.864622   6.155171
    30  H   11.048709   7.449126   4.835831   5.985114   5.762696
    31  H    9.772662   6.362998   4.587580   7.121740   6.584770
    32  H   11.200345   8.120957   6.830930   9.457614   8.825458
    33  H   12.193198   9.040447   7.564395   9.861225   9.408716
    34  H   11.537263   8.728601   7.889555  10.584885  10.170460
    35  H   10.702759   8.077062   7.622345  10.201223  10.188530
    36  H    9.370701   6.929421   6.855860   9.177637   9.571237
    37  H    7.333579   4.486546   4.436723   6.891641   7.343589
    38  H    8.844992   5.815113   4.877107   6.711781   7.234975
    39  H    5.947230   2.722001   2.768346   6.017007   5.687222
    40  H    6.551181   3.402732   3.420304   6.630213   6.532334
    41  H    2.419304   3.326039   6.099014   7.453086   8.381472
    42  H    2.426245   2.690089   5.268132   6.534630   7.243707
    43  H    6.140439   2.742960   1.086211   3.547966   3.466061
                   26         27         28         29         30
    26  H    0.000000
    27  H    3.789723   0.000000
    28  H    5.977736   2.316883   0.000000
    29  H    6.632566   3.527062   1.772266   0.000000
    30  H    6.563735   3.393337   1.771195   1.757726   0.000000
    31  H    6.935033   5.244497   4.591591   3.910698   3.030591
    32  H    9.198229   7.497903   6.517416   5.675499   4.778328
    33  H    9.909429   7.589962   6.107338   5.130057   4.397490
    34  H   10.404763   8.599512   7.358429   6.174206   5.686875
    35  H   10.208825   8.315567   6.941223   5.369859   5.595735
    36  H    9.333609   7.619626   6.428150   4.679556   5.620179
    37  H    6.879822   5.816573   5.363213   3.921480   4.851539
    38  H    7.115265   5.122432   4.113695   2.473071   3.781134
    39  H    4.977959   5.850739   6.632261   6.120679   5.962359
    40  H    6.001918   5.887404   6.060066   5.125867   5.209259
    41  H    6.772068   8.693789   9.768163   9.112936   9.991984
    42  H    5.538207   8.086134   9.493761   9.102063   9.711965
    43  H    2.391408   4.292377   5.865548   5.909666   5.903269
                   31         32         33         34         35
    31  H    0.000000
    32  H    2.345105   0.000000
    33  H    3.078813   1.778958   0.000000
    34  H    3.594819   1.769434   1.779027   0.000000
    35  H    4.198121   3.610417   3.057659   2.367333   0.000000
    36  H    4.953212   5.426333   4.981083   4.653394   2.446235
    37  H    4.171186   5.606920   5.747307   5.604857   4.168621
    38  H    4.164437   5.674607   5.339955   5.685957   4.173241
    39  H    4.138026   5.756054   6.944020   6.663537   6.655708
    40  H    3.281643   4.767863   5.708405   5.338517   4.976788
    41  H    9.339642  11.042173  11.737903  11.340229  10.176851
    42  H    8.991396  10.808730  11.679110  11.374883  10.545150
    43  H    5.381799   7.516839   8.402369   8.577819   8.348234
                   36         37         38         39         40
    36  H    0.000000
    37  H    2.586129   0.000000
    38  H    2.615432   1.747072   0.000000
    39  H    6.321630   4.180919   5.358744   0.000000
    40  H    4.573337   2.653645   3.939855   1.768027   0.000000
    41  H    8.444243   6.312906   7.546411   6.016490   6.303371
    42  H    9.085508   6.698995   7.902454   5.304346   6.077251
    43  H    7.552970   5.052586   5.736191   2.645640   3.743301
                   41         42         43
    41  H    0.000000
    42  H    1.802921   0.000000
    43  H    5.556299   4.485663   0.000000
 Stoichiometry    C18H20ClN3O
 Framework group  C1[X(C18H20ClN3O)]
 Deg. of freedom   123
 Full point group                 C1      NOp   1
 Largest Abelian subgroup         C1      NOp   1
 Largest concise Abelian subgroup C1      NOp   1
                         Standard orientation:                         
 ---------------------------------------------------------------------
 Center     Atomic      Atomic             Coordinates (Angstroms)
 Number     Number       Type             X           Y           Z
 ---------------------------------------------------------------------
      1          6           0       -0.376212    4.764181   -0.305401
      2          6           0        0.311950    3.421245   -0.191623
      3          6           0        1.578279    3.311787    0.404626
      4          6           0        2.243075    2.084590    0.515724
      5          6           0        3.612161    2.033663    1.162410
      6          6           0        1.629329    0.905627    0.013607
      7          6           0        2.320680   -0.415778    0.158078
      8          6           0        3.213929   -0.835058   -0.765904
      9          7           0        3.890124   -2.057965   -0.699932
     10          6           0        4.984743   -2.354869   -1.617321
     11          6           0        3.633803   -2.887968    0.402257
     12          6           0        2.766425   -2.561164    1.376506
     13          6           0        1.989809   -1.259810    1.390958
     14          6           0        0.351026    1.008784   -0.579952
     15          6           0       -0.359175   -0.225217   -1.138524
     16          6           0       -1.600288   -0.579299   -0.383290
     17          7           0       -1.640351   -1.570519    0.498014
     18          8           0       -3.029961   -1.512416    0.993430
     19          6           0       -3.623790   -0.474431    0.312166
     20          6           0       -5.037142   -0.164072    0.581571
     21         17           0       -6.189724   -1.296411   -0.416170
     22          7           0       -2.808401    0.119351   -0.528883
     23          6           0       -0.286977    2.256081   -0.679844
     24          1           0       -0.466846    5.252365    0.673033
     25          1           0        0.185060    5.448434   -0.955070
     26          1           0       -1.382658    4.661121   -0.722893
     27          1           0        2.060967    4.205943    0.792449
     28          1           0        3.873577    3.005384    1.593106
     29          1           0        3.655932    1.285713    1.962281
     30          1           0        4.391790    1.765131    0.439694
     31          1           0        3.447677   -0.230489   -1.636513
     32          1           0        4.779910   -1.906147   -2.594033
     33          1           0        5.955156   -1.976974   -1.260439
     34          1           0        5.067792   -3.437332   -1.755288
     35          1           0        4.177367   -3.826377    0.403428
     36          1           0        2.595050   -3.266653    2.183048
     37          1           0        0.904900   -1.458421    1.433546
     38          1           0        2.201945   -0.684113    2.311260
     39          1           0       -0.650210   -0.042189   -2.179763
     40          1           0        0.319204   -1.080262   -1.126881
     41          1           0       -5.304821   -0.337257    1.620985
     42          1           0       -5.274961    0.846252    0.261228
     43          1           0       -1.271202    2.308369   -1.136376
 ---------------------------------------------------------------------
 Rotational constants (GHZ):           0.3179307           0.1305735           0.1008151
 Standard basis: 6-31G (6D, 7F)
 There are   251 symmetry adapted cartesian basis functions of A   symmetry.
 There are   251 symmetry adapted basis functions of A   symmetry.
   251 basis functions,   610 primitive gaussians,   251 cartesian basis functions
    87 alpha electrons       87 beta electrons
       nuclear repulsion energy      1958.6451288182 Hartrees.
 NAtoms=   43 NActive=   43 NUniq=   43 SFac= 1.00D+00 NAtFMM=   60 NAOKFM=F Big=F
 Integral buffers will be    131072 words long.
 Regular integral format.
 Two-electron integral symmetry is turned on.
 One-electron integrals computed using PRISM.
 NBasis=   251 RedAO= T EigKep=  4.34D-04  NBF=   251
 NBsUse=   251 1.00D-06 EigRej= -1.00D+00 NBFU=   251
 ExpMin= 1.43D-01 ExpMax= 2.52D+04 ExpMxC= 3.78D+03 IAcc=3 IRadAn=         5 AccDes= 0.00D+00
 Harris functional with IExCor=  402 and IRadAn=       5 diagonalized for initial guess.
 HarFok:  IExCor=  402 AccDes= 0.00D+00 IRadAn=         5 IDoV= 1 UseB2=F ITyADJ=14
 ICtDFT=  3500011 ScaDFX=  1.000000  1.000000  1.000000  1.000000
 FoFCou: FMM=F IPFlag=           0 FMFlag=      100000 FMFlg1=           0
         NFxFlg=           0 DoJE=T BraDBF=F KetDBF=T FulRan=T
         wScrn=  0.000000 ICntrl=       500 IOpCl=  0 I1Cent=   200000004 NGrid=           0
         NMat0=    1 NMatS0=      1 NMatT0=    0 NMatD0=    1 NMtDS0=    0 NMtDT0=    0
 Petite list used in FoFCou.
 Requested convergence on RMS density matrix=1.00D-08 within 128 cycles.
 Requested convergence on MAX density matrix=1.00D-06.
 Requested convergence on             energy=1.00D-06.
 No special actions if energy rises.
 Integral accuracy reduced to 1.0D-05 until final iterations.
 Initial convergence to 1.0D-05 achieved.  Increase integral accuracy.
 SCF Done:  E(RB3LYP) =  -1397.28454568     A.U. after   16 cycles
            NFock= 16  Conv=0.57D-08     -V/T= 2.0044
 DoSCS=F DFT=T ScalE2(SS,OS)=  1.000000  1.000000
 ExpMin= 1.43D-01 ExpMax= 2.52D+04 ExpMxC= 3.78D+03 IAcc=3 IRadAn=         5 AccDes= 0.00D+00
 HarFok:  IExCor=  205 AccDes= 0.00D+00 IRadAn=         5 IDoV=-2 UseB2=F ITyADJ=14
 ICtDFT= 12500011 ScaDFX=  1.000000  1.000000  1.000000  1.000000
 GSVD:  LWork=        -945 too small for GESVD, short by        4050 words or        4050 for optimal perf.
 Range of M.O.s used for correlation:    28   251
 NBasis=   251 NAE=    87 NBE=    87 NFC=    27 NFV=     0
 NROrb=    224 NOA=    60 NOB=    60 NVA=   164 NVB=   164

 **** Warning!!: The largest alpha MO coefficient is  0.13989623D+02


 **** Warning!!: The smallest alpha delta epsilon is  0.88681503D-01

 Keep R1, R2, and R3 ints in memory in canonical form, NReq=1621265052.
 Orbital symmetries:
       Occupied  (A) (A) (A) (A) (A) (A) (A) (A) (A) (A) (A) (A)
                 (A) (A) (A) (A) (A) (A) (A) (A) (A) (A) (A) (A)
                 (A) (A) (A) (A) (A) (A) (A) (A) (A) (A) (A) (A)
                 (A) (A) (A) (A) (A) (A) (A) (A) (A) (A) (A) (A)
                 (A) (A) (A) (A) (A) (A) (A) (A) (A) (A) (A) (A)
                 (A) (A) (A) (A) (A) (A) (A) (A) (A) (A) (A) (A)
                 (A) (A) (A) (A) (A) (A) (A) (A) (A) (A) (A) (A)
                 (A) (A) (A)
       Virtual   (A) (A) (A) (A) (A) (A) (A) (A) (A) (A) (A) (A)
                 (A) (A) (A) (A) (A) (A) (A) (A) (A) (A) (A) (A)
                 (A) (A) (A) (A) (A) (A) (A) (A) (A) (A) (A) (A)
                 (A) (A) (A) (A) (A) (A) (A) (A) (A) (A) (A) (A)
                 (A) (A) (A) (A) (A) (A) (A) (A) (A) (A) (A) (A)
                 (A) (A) (A) (A) (A) (A) (A) (A) (A) (A) (A) (A)
                 (A) (A) (A) (A) (A) (A) (A) (A) (A) (A) (A) (A)
                 (A) (A) (A) (A) (A) (A) (A) (A) (A) (A) (A) (A)
                 (A) (A) (A) (A) (A) (A) (A) (A) (A) (A) (A) (A)
                 (A) (A) (A) (A) (A) (A) (A) (A) (A) (A) (A) (A)
                 (A) (A) (A) (A) (A) (A) (A) (A) (A) (A) (A) (A)
                 (A) (A) (A) (A) (A) (A) (A) (A) (A) (A) (A) (A)
                 (A) (A) (A) (A) (A) (A) (A) (A) (A) (A) (A) (A)
                 (A) (A) (A) (A) (A) (A) (A) (A)
    24 initial guesses have been made.
 Convergence on wavefunction:    0.001000000000000
 Iteration     1 Dimension    24 NMult     0 NNew     24
 CISAX will form    24 AO SS matrices at one time.
 New state      1 was old state      2
 New state      2 was old state      1
 New state      3 was old state     16
 New state      5 was old state      3
 New state      6 was old state      5
 New state      7 was old state      6
 New state      9 was old state      7
 New state     11 was old state      9
 Iteration     2 Dimension    36 NMult    24 NNew     12
 Iteration     3 Dimension    48 NMult    36 NNew     12
 Iteration     4 Dimension    60 NMult    48 NNew     12
 Iteration     5 Dimension    68 NMult    60 NNew      8
 Iteration     6 Dimension    72 NMult    68 NNew      4
 Iteration     7 Dimension    74 NMult    72 NNew      2
 Iteration     8 Dimension    76 NMult    74 NNew      2
 Iteration     9 Dimension    78 NMult    76 NNew      2
 ***********************************************************************
 Excited states from <AA,BB:AA,BB> singles matrix:
 ***********************************************************************
 
 Ground to excited state transition densities written to RWF  633
 Ground to excited state transition electric dipole moments (Au):
       state          X           Y           Z        Dip. S.      Osc.
         1        -0.0000     -0.0000      0.0000      0.0000      0.0000
         2        -0.3233      0.0239      0.0009      0.1051      0.0051
         3         0.0000      0.0000      0.0000      0.0000      0.0000
         4        -0.0000      0.0000     -0.0000      0.0000      0.0000
         5         0.0995      0.1084     -0.0040      0.0217      0.0019
         6        -0.2395      0.1241     -0.0299      0.0737      0.0065
 Ground to excited state transition velocity dipole moments (Au):
       state          X           Y           Z        Dip. S.      Osc.
         1        -0.0000      0.0000     -0.0000      0.0000      0.0000
         2         0.0212      0.0007      0.0011      0.0005      0.0041
         3        -0.0000     -0.0000     -0.0000      0.0000      0.0000
         4         0.0000     -0.0000      0.0000      0.0000      0.0000
         5        -0.0092     -0.0138     -0.0022      0.0003      0.0014
         6         0.0343     -0.0159      0.0117      0.0016      0.0078
 Ground to excited state transition magnetic dipole moments (Au):
       state          X           Y           Z
         1         0.0000      0.0000      0.0000
         2        -0.0163      0.0430      0.0497
         3        -0.0000      0.0000      0.0000
         4        -0.0000     -0.0000     -0.0000
         5         0.0027     -0.0011      0.0236
         6        -0.1832     -0.1913     -0.1362
 Ground to excited state transition velocity quadrupole moments (Au):
       state          XX          YY          ZZ          XY          XZ          YZ
         1        -0.0000      0.0000     -0.0000      0.0000     -0.0000      0.0000
         2        -0.0028      0.0179      0.0072     -0.0640     -0.0032     -0.0040
         3        -0.0000     -0.0000     -0.0000      0.0000     -0.0000      0.0000
         4         0.0000      0.0000      0.0000     -0.0000      0.0000     -0.0000
         5         0.0967     -0.0886      0.0035      0.0105      0.0009      0.0004
         6         0.1256      0.0312      0.0318     -0.1313      0.0187     -0.0287
 <0|del|b> * <b|rxdel|0> + <0|del|b> * <b|delr+rdel|0>
 Rotatory Strengths (R) in cgs (10**-40 erg-esu-cm/Gauss)
       state          XX          YY          ZZ    R(velocity)    E-M Angle
         1         0.0000      0.0000      0.0000      0.0000       90.00
         2         0.0874     -1.4878     -1.1339     -0.8448      100.45
         3        -0.0000     -0.0000      0.0000     -0.0000       90.00
         4        -0.0000     -0.0000      0.0000     -0.0000       90.00
         5        -0.1279     -0.1514     -0.0502     -0.1098       90.00
         6         0.5805    -19.4597     -6.7881     -8.5558      114.20
 1/2[<0|r|b>*<b|rxdel|0> + (<0|rxdel|b>*<b|r|0>)*]
 Rotatory Strengths (R) in cgs (10**-40 erg-esu-cm/Gauss)
       state          XX          YY          ZZ     R(length)
         1         0.0000      0.0000     -0.0000      0.0000
         2        -3.7369     -0.7278     -0.0303     -1.4983
         3         0.0000     -0.0000     -0.0000     -0.0000
         4        -0.0000      0.0000     -0.0000     -0.0000
         5        -0.1879      0.0821      0.0673     -0.0128
         6       -31.0248     16.7842     -2.8819     -5.7075
  1/2[<0|del|b>*<b|r|0> + (<0|r|b>*<b|del|0>)*] (Au)
       state          X           Y           Z        Dip. S.   Osc.(frdel)
         1         0.0000     -0.0000     -0.0000      0.0000      0.0000
         2        -0.0069      0.0000      0.0000      0.0068      0.0046
         3        -0.0000     -0.0000     -0.0000      0.0000      0.0000
         4        -0.0000     -0.0000     -0.0000      0.0000      0.0000
         5        -0.0009     -0.0015      0.0000      0.0024      0.0016
         6        -0.0082     -0.0020     -0.0003      0.0105      0.0070

 Excitation energies and oscillator strengths:
 
 Excited State   1:      Triplet-A      1.9700 eV  629.37 nm  f=0.0000  <S**2>=2.000
      87 -> 88         0.70610
 This state for optimization and/or second-order correction.
 Total Energy, E(TD-HF/TD-DFT) =  -1397.21215099    
 Copying the excited state density for this state as the 1-particle RhoCI density.
 
 Excited State   2:      Singlet-A      1.9809 eV  625.89 nm  f=0.0051  <S**2>=0.000
      87 -> 88         0.70637
 
 Excited State   3:      Triplet-A      2.8281 eV  438.40 nm  f=0.0000  <S**2>=2.000
      84 -> 95        -0.14317
      87 -> 89         0.17367
      87 -> 90         0.13360
      87 -> 91        -0.19396
      87 -> 92         0.62647
 
 Excited State   4:      Triplet-A      3.5425 eV  349.99 nm  f=0.0000  <S**2>=2.000
      85 -> 89        -0.17973
      85 -> 91         0.18508
      86 -> 88         0.53606
      86 -> 89         0.13048
      86 -> 90         0.26827
      87 -> 89         0.13692
 
 Excited State   5:      Singlet-A      3.6107 eV  343.38 nm  f=0.0019  <S**2>=0.000
      86 -> 88         0.70567
 
 Excited State   6:      Singlet-A      3.6216 eV  342.35 nm  f=0.0065  <S**2>=0.000
      87 -> 89         0.68926
      87 -> 90         0.10843
 SavETr:  write IOETrn=   770 NScale= 10 NData=  16 NLR=1 NState=    6 LETran=     118.

 **********************************************************************

            Population analysis using the SCF Density.

 **********************************************************************

 Orbital symmetries:
       Occupied  (A) (A) (A) (A) (A) (A) (A) (A) (A) (A) (A) (A)
                 (A) (A) (A) (A) (A) (A) (A) (A) (A) (A) (A) (A)
                 (A) (A) (A) (A) (A) (A) (A) (A) (A) (A) (A) (A)
                 (A) (A) (A) (A) (A) (A) (A) (A) (A) (A) (A) (A)
                 (A) (A) (A) (A) (A) (A) (A) (A) (A) (A) (A) (A)
                 (A) (A) (A) (A) (A) (A) (A) (A) (A) (A) (A) (A)
                 (A) (A) (A) (A) (A) (A) (A) (A) (A) (A) (A) (A)
                 (A) (A) (A)
       Virtual   (A) (A) (A) (A) (A) (A) (A) (A) (A) (A) (A) (A)
                 (A) (A) (A) (A) (A) (A) (A) (A) (A) (A) (A) (A)
                 (A) (A) (A) (A) (A) (A) (A) (A) (A) (A) (A) (A)
                 (A) (A) (A) (A) (A) (A) (A) (A) (A) (A) (A) (A)
                 (A) (A) (A) (A) (A) (A) (A) (A) (A) (A) (A) (A)
                 (A) (A) (A) (A) (A) (A) (A) (A) (A) (A) (A) (A)
                 (A) (A) (A) (A) (A) (A) (A) (A) (A) (A) (A) (A)
                 (A) (A) (A) (A) (A) (A) (A) (A) (A) (A) (A) (A)
                 (A) (A) (A) (A) (A) (A) (A) (A) (A) (A) (A) (A)
                 (A) (A) (A) (A) (A) (A) (A) (A) (A) (A) (A) (A)
                 (A) (A) (A) (A) (A) (A) (A) (A) (A) (A) (A) (A)
                 (A) (A) (A) (A) (A) (A) (A) (A) (A) (A) (A) (A)
                 (A) (A) (A) (A) (A) (A) (A) (A) (A) (A) (A) (A)
                 (A) (A) (A) (A) (A) (A) (A) (A)
 The electronic state is 1-A.
 Alpha  occ. eigenvalues -- -101.53076 -19.25547 -14.41419 -14.37140 -14.35730
 Alpha  occ. eigenvalues --  -10.32133 -10.28398 -10.28016 -10.22140 -10.21252
 Alpha  occ. eigenvalues --  -10.20884 -10.20417 -10.19717 -10.19212 -10.19133
 Alpha  occ. eigenvalues --  -10.18897 -10.17769 -10.17742 -10.17617 -10.17571
 Alpha  occ. eigenvalues --  -10.17526 -10.17145 -10.16588  -9.46315  -7.22754
 Alpha  occ. eigenvalues --   -7.21559  -7.21528  -1.17238  -0.96762  -0.95658
 Alpha  occ. eigenvalues --   -0.91372  -0.86506  -0.85591  -0.80779  -0.79109
 Alpha  occ. eigenvalues --   -0.77857  -0.75529  -0.74516  -0.72318  -0.71426
 Alpha  occ. eigenvalues --   -0.68645  -0.68062  -0.63248  -0.62588  -0.61990
 Alpha  occ. eigenvalues --   -0.61359  -0.57497  -0.56482  -0.52055  -0.51779
 Alpha  occ. eigenvalues --   -0.50324  -0.49594  -0.48485  -0.48392  -0.47773
 Alpha  occ. eigenvalues --   -0.46170  -0.45694  -0.45394  -0.44097  -0.42693
 Alpha  occ. eigenvalues --   -0.42394  -0.42065  -0.41688  -0.41381  -0.40939
 Alpha  occ. eigenvalues --   -0.40711  -0.40562  -0.40210  -0.40055  -0.39151
 Alpha  occ. eigenvalues --   -0.36733  -0.36080  -0.35464  -0.35077  -0.34503
 Alpha  occ. eigenvalues --   -0.33722  -0.33136  -0.32946  -0.31807  -0.31593
 Alpha  occ. eigenvalues --   -0.31131  -0.30405  -0.29995  -0.25587  -0.23678
 Alpha  occ. eigenvalues --   -0.22980  -0.16698
 Alpha virt. eigenvalues --   -0.07830  -0.01150   0.00603   0.00680   0.01664
 Alpha virt. eigenvalues --    0.02745   0.04586   0.07187   0.08712   0.10711
 Alpha virt. eigenvalues --    0.11025   0.11305   0.11418   0.12304   0.12571
 Alpha virt. eigenvalues --    0.12881   0.13689   0.14251   0.14638   0.15579
 Alpha virt. eigenvalues --    0.16085   0.16526   0.17083   0.17863   0.18005
 Alpha virt. eigenvalues --    0.18195   0.18776   0.19308   0.20281   0.20722
 Alpha virt. eigenvalues --    0.21177   0.22663   0.23567   0.24831   0.25288
 Alpha virt. eigenvalues --    0.25463   0.26559   0.27660   0.28846   0.30508
 Alpha virt. eigenvalues --    0.32770   0.33291   0.35341   0.36980   0.37398
 Alpha virt. eigenvalues --    0.38886   0.39481   0.39590   0.41380   0.42150
 Alpha virt. eigenvalues --    0.44290   0.44694   0.45789   0.47524   0.47955
 Alpha virt. eigenvalues --    0.50310   0.50793   0.51577   0.52746   0.54010
 Alpha virt. eigenvalues --    0.54393   0.54710   0.55441   0.55760   0.56216
 Alpha virt. eigenvalues --    0.57541   0.58104   0.58276   0.58688   0.58915
 Alpha virt. eigenvalues --    0.59865   0.60447   0.60553   0.62488   0.62927
 Alpha virt. eigenvalues --    0.63294   0.63980   0.64561   0.64879   0.66286
 Alpha virt. eigenvalues --    0.67326   0.68069   0.69088   0.69828   0.70364
 Alpha virt. eigenvalues --    0.71059   0.72138   0.72885   0.73355   0.74499
 Alpha virt. eigenvalues --    0.74696   0.75936   0.76711   0.76851   0.77329
 Alpha virt. eigenvalues --    0.78060   0.79057   0.79992   0.80539   0.81299
 Alpha virt. eigenvalues --    0.83721   0.83813   0.85323   0.85732   0.86209
 Alpha virt. eigenvalues --    0.86870   0.87173   0.87976   0.88449   0.89268
 Alpha virt. eigenvalues --    0.91630   0.92502   0.92800   0.92918   0.93663
 Alpha virt. eigenvalues --    0.94460   0.94841   0.95714   0.95949   0.96697
 Alpha virt. eigenvalues --    0.97143   0.97455   0.98072   0.98468   0.99401
 Alpha virt. eigenvalues --    1.00451   1.01463   1.02331   1.05263   1.05353
 Alpha virt. eigenvalues --    1.06713   1.07791   1.09809   1.10006   1.13121
 Alpha virt. eigenvalues --    1.13239   1.15726   1.17637   1.18686   1.19597
 Alpha virt. eigenvalues --    1.22940   1.23193   1.26433   1.29705   1.31811
 Alpha virt. eigenvalues --    1.32553   1.34644   1.37171   1.39026   1.41874
 Alpha virt. eigenvalues --    1.43870   1.46202   1.50682   1.51296   1.52855
 Alpha virt. eigenvalues --    1.56466   1.61994   1.63450   1.68086   1.71864
 Alpha virt. eigenvalues --    1.77635   1.90323   1.93656   1.96181
          Condensed to atoms (all electrons):
               1          2          3          4          5          6
     1  C    5.165092   0.306233  -0.050278   0.005043  -0.000209   0.001063
     2  C    0.306233   4.792532   0.507217  -0.037348   0.006075  -0.028811
     3  C   -0.050278   0.507217   5.076682   0.502268  -0.047979  -0.044832
     4  C    0.005043  -0.037348   0.502268   4.904987   0.315424   0.488855
     5  C   -0.000209   0.006075  -0.047979   0.315424   5.167037  -0.052461
     6  C    0.001063  -0.028811  -0.044832   0.488855  -0.052461   5.018319
     7  C    0.000004   0.000019   0.008309  -0.069874  -0.007552   0.339874
     8  C   -0.000000   0.000029  -0.000021  -0.006272   0.001961  -0.018256
     9  N   -0.000000  -0.000000   0.000001   0.000200  -0.000206   0.003273
    10  C   -0.000000   0.000000  -0.000000  -0.000004   0.000000  -0.000064
    11  C    0.000000   0.000000   0.000000   0.000013   0.000037   0.000823
    12  C    0.000000   0.000000   0.000000   0.000052   0.000001   0.006080
    13  C   -0.000000   0.000006  -0.000030  -0.000994  -0.001230  -0.042672
    14  C    0.006087  -0.037227  -0.050642  -0.041320   0.007044   0.505660
    15  C   -0.000224   0.004597   0.000908   0.005801  -0.000184  -0.035598
    16  C    0.000001   0.000318  -0.000010  -0.000058   0.000002  -0.001198
    17  N    0.000000   0.000002  -0.000000  -0.000012   0.000000   0.000071
    18  O   -0.000000  -0.000000   0.000000  -0.000000   0.000000  -0.000004
    19  C    0.000000  -0.000009   0.000000  -0.000000   0.000000   0.000009
    20  C    0.000000  -0.000000  -0.000000   0.000000   0.000000  -0.000000
    21  Cl  -0.000000  -0.000000   0.000000  -0.000000  -0.000000   0.000000
    22  N   -0.000002  -0.000011   0.000004  -0.000000   0.000000  -0.000052
    23  C   -0.037336   0.534294  -0.052654  -0.045287   0.000717  -0.050466
    24  H    0.366040  -0.032946  -0.002594   0.000114   0.000001   0.000004
    25  H    0.366674  -0.033162  -0.002819   0.000042   0.000001   0.000018
    26  H    0.366898  -0.035412   0.003252  -0.000182   0.000002  -0.000016
    27  H   -0.005084  -0.045587   0.346679  -0.032635  -0.007365   0.004713
    28  H   -0.000002   0.000465  -0.001454  -0.036316   0.358549   0.004239
    29  H    0.000002  -0.000216   0.001015  -0.029242   0.365249  -0.006277
    30  H    0.000003  -0.000191  -0.000447  -0.031140   0.365642  -0.003887
    31  H   -0.000000  -0.000012  -0.000043   0.001121  -0.000013  -0.002337
    32  H   -0.000000   0.000000  -0.000000   0.000003  -0.000001  -0.000002
    33  H    0.000000   0.000000   0.000000  -0.000003   0.000004   0.000002
    34  H    0.000000  -0.000000   0.000000   0.000000  -0.000000   0.000002
    35  H   -0.000000  -0.000000   0.000000   0.000000   0.000000  -0.000010
    36  H   -0.000000  -0.000000  -0.000000   0.000000  -0.000001  -0.000186
    37  H    0.000000  -0.000001   0.000023  -0.000737   0.000145  -0.002486
    38  H   -0.000000  -0.000014  -0.000099   0.003360  -0.001092  -0.002225
    39  H   -0.000001   0.000144   0.000012  -0.000161   0.000002   0.001236
    40  H    0.000001  -0.000146  -0.000025   0.000672  -0.000005  -0.008630
    41  H   -0.000000   0.000000   0.000000  -0.000000  -0.000000  -0.000000
    42  H   -0.000000   0.000000   0.000000  -0.000000  -0.000000   0.000000
    43  H   -0.006990  -0.031670   0.004876   0.000670   0.000008   0.003786
               7          8          9         10         11         12
     1  C    0.000004  -0.000000  -0.000000  -0.000000   0.000000   0.000000
     2  C    0.000019   0.000029  -0.000000   0.000000   0.000000   0.000000
     3  C    0.008309  -0.000021   0.000001  -0.000000   0.000000   0.000000
     4  C   -0.069874  -0.006272   0.000200  -0.000004   0.000013   0.000052
     5  C   -0.007552   0.001961  -0.000206   0.000000   0.000037   0.000001
     6  C    0.339874  -0.018256   0.003273  -0.000064   0.000823   0.006080
     7  C    5.039003   0.619903  -0.037519   0.003975  -0.004907  -0.014302
     8  C    0.619903   4.830929   0.225523  -0.032437  -0.055262  -0.014372
     9  N   -0.037519   0.225523   7.234477   0.260663   0.256317  -0.050165
    10  C    0.003975  -0.032437   0.260663   4.916506  -0.033192   0.003797
    11  C   -0.004907  -0.055262   0.256317  -0.033192   4.738095   0.668058
    12  C   -0.014302  -0.014372  -0.050165   0.003797   0.668058   4.992557
    13  C    0.327692  -0.051932  -0.030965   0.000057  -0.045855   0.311278
    14  C   -0.065745  -0.002750   0.000065  -0.000000   0.000009   0.000126
    15  C   -0.018664  -0.002904  -0.000012   0.000000  -0.000003  -0.000234
    16  C    0.001326   0.000209   0.000000  -0.000000   0.000000  -0.000030
    17  N    0.000226   0.000011  -0.000000   0.000000   0.000002   0.000043
    18  O   -0.000000  -0.000000   0.000000  -0.000000  -0.000000  -0.000000
    19  C    0.000001   0.000000  -0.000000  -0.000000  -0.000000  -0.000000
    20  C   -0.000000  -0.000000   0.000000  -0.000000  -0.000000  -0.000000
    21  Cl   0.000000   0.000000   0.000000   0.000000  -0.000000  -0.000000
    22  N   -0.000005  -0.000001   0.000000  -0.000000   0.000000  -0.000000
    23  C    0.008176  -0.000014   0.000001  -0.000000   0.000000   0.000001
    24  H   -0.000000   0.000000  -0.000000   0.000000  -0.000000   0.000000
    25  H   -0.000000  -0.000000   0.000000  -0.000000   0.000000  -0.000000
    26  H   -0.000000   0.000000  -0.000000   0.000000  -0.000000   0.000000
    27  H   -0.000215  -0.000004  -0.000000   0.000000  -0.000000  -0.000000
    28  H    0.000774   0.000127  -0.000002  -0.000000  -0.000000   0.000001
    29  H    0.001403  -0.000119   0.000042  -0.000002   0.000023  -0.000280
    30  H    0.001990   0.001838  -0.000134   0.000009  -0.000002   0.000007
    31  H   -0.040433   0.369193  -0.056838  -0.003346   0.003949  -0.000416
    32  H    0.000459  -0.000855  -0.043504   0.378362   0.002412  -0.000216
    33  H    0.000086   0.001479  -0.057738   0.370535   0.001528   0.000192
    34  H   -0.000208   0.002230  -0.043889   0.378808  -0.000998   0.000410
    35  H   -0.000444   0.004622  -0.060218  -0.003003   0.369066  -0.030907
    36  H    0.003072   0.000881   0.004530  -0.000137  -0.032955   0.357973
    37  H   -0.045278   0.000036   0.000863  -0.000002   0.000078  -0.040574
    38  H   -0.046883  -0.000306   0.001493   0.000020  -0.000512  -0.042513
    39  H    0.000238   0.000087  -0.000003   0.000000  -0.000001   0.000003
    40  H    0.017237   0.005598  -0.000486  -0.000007   0.000198   0.000454
    41  H    0.000000   0.000000  -0.000000   0.000000   0.000000   0.000000
    42  H   -0.000000   0.000000  -0.000000   0.000000   0.000000   0.000000
    43  H   -0.000182  -0.000002  -0.000000   0.000000  -0.000000  -0.000000
              13         14         15         16         17         18
     1  C   -0.000000   0.006087  -0.000224   0.000001   0.000000  -0.000000
     2  C    0.000006  -0.037227   0.004597   0.000318   0.000002  -0.000000
     3  C   -0.000030  -0.050642   0.000908  -0.000010  -0.000000   0.000000
     4  C   -0.000994  -0.041320   0.005801  -0.000058  -0.000012  -0.000000
     5  C   -0.001230   0.007044  -0.000184   0.000002   0.000000   0.000000
     6  C   -0.042672   0.505660  -0.035598  -0.001198   0.000071  -0.000004
     7  C    0.327692  -0.065745  -0.018664   0.001326   0.000226  -0.000000
     8  C   -0.051932  -0.002750  -0.002904   0.000209   0.000011  -0.000000
     9  N   -0.030965   0.000065  -0.000012   0.000000  -0.000000   0.000000
    10  C    0.000057  -0.000000   0.000000  -0.000000   0.000000  -0.000000
    11  C   -0.045855   0.000009  -0.000003   0.000000   0.000002  -0.000000
    12  C    0.311278   0.000126  -0.000234  -0.000030   0.000043  -0.000000
    13  C    5.166199  -0.002177   0.001745  -0.000650  -0.003460   0.000022
    14  C   -0.002177   4.985120   0.301785  -0.053334   0.000601   0.000002
    15  C    0.001745   0.301785   5.370050   0.229633  -0.086518   0.006838
    16  C   -0.000650  -0.053334   0.229633   5.126203   0.297146  -0.061904
    17  N   -0.003460   0.000601  -0.086518   0.297146   6.953577   0.120561
    18  O    0.000022   0.000002   0.006838  -0.061904   0.120561   8.372044
    19  C   -0.000001   0.000120   0.010285  -0.059287  -0.088530   0.154038
    20  C    0.000000  -0.000001   0.000023   0.012171   0.003331  -0.070363
    21  Cl   0.000000   0.000000  -0.000008  -0.000617   0.000094   0.001201
    22  N   -0.000019  -0.003849  -0.071089   0.308305  -0.106127  -0.132994
    23  C   -0.000058   0.454813  -0.056094  -0.003502  -0.000112  -0.000015
    24  H   -0.000000  -0.000199   0.000003  -0.000000  -0.000000   0.000000
    25  H    0.000000  -0.000192   0.000002   0.000000  -0.000000  -0.000000
    26  H    0.000000   0.000393   0.000001  -0.000002  -0.000000  -0.000000
    27  H    0.000001   0.000678   0.000011   0.000000  -0.000000   0.000000
    28  H    0.000019  -0.000161   0.000002  -0.000000  -0.000000   0.000000
    29  H    0.001228  -0.000041  -0.000001  -0.000000  -0.000000  -0.000000
    30  H   -0.000014   0.000075   0.000005   0.000000  -0.000000   0.000000
    31  H    0.005477   0.000523   0.000203   0.000008   0.000000  -0.000000
    32  H   -0.000003  -0.000003  -0.000001   0.000000   0.000000  -0.000000
    33  H    0.000012   0.000000   0.000000  -0.000000  -0.000000   0.000000
    34  H   -0.000000  -0.000000  -0.000000   0.000000   0.000000  -0.000000
    35  H    0.005405   0.000000  -0.000000  -0.000000   0.000000  -0.000000
    36  H   -0.036264  -0.000001  -0.000002   0.000001  -0.000002   0.000000
    37  H    0.363839   0.002981   0.001163   0.000200   0.012376  -0.000144
    38  H    0.355284  -0.000500  -0.000205   0.000053   0.000028  -0.000000
    39  H    0.000017  -0.031052   0.357978  -0.033934   0.003758  -0.000090
    40  H   -0.001310  -0.032230   0.347483  -0.028404  -0.000809  -0.000082
    41  H   -0.000000  -0.000000   0.000001  -0.000291   0.000065  -0.000116
    42  H   -0.000000   0.000000  -0.000016  -0.000053  -0.000075   0.002821
    43  H    0.000002  -0.034836  -0.008048   0.000733   0.000200   0.000027
              19         20         21         22         23         24
     1  C    0.000000   0.000000  -0.000000  -0.000002  -0.037336   0.366040
     2  C   -0.000009  -0.000000  -0.000000  -0.000011   0.534294  -0.032946
     3  C    0.000000  -0.000000   0.000000   0.000004  -0.052654  -0.002594
     4  C   -0.000000   0.000000  -0.000000  -0.000000  -0.045287   0.000114
     5  C    0.000000   0.000000  -0.000000   0.000000   0.000717   0.000001
     6  C    0.000009  -0.000000   0.000000  -0.000052  -0.050466   0.000004
     7  C    0.000001  -0.000000   0.000000  -0.000005   0.008176  -0.000000
     8  C    0.000000  -0.000000   0.000000  -0.000001  -0.000014   0.000000
     9  N   -0.000000   0.000000   0.000000   0.000000   0.000001  -0.000000
    10  C   -0.000000  -0.000000   0.000000  -0.000000  -0.000000   0.000000
    11  C   -0.000000  -0.000000  -0.000000   0.000000   0.000000  -0.000000
    12  C   -0.000000  -0.000000  -0.000000  -0.000000   0.000001   0.000000
    13  C   -0.000001   0.000000   0.000000  -0.000019  -0.000058  -0.000000
    14  C    0.000120  -0.000001   0.000000  -0.003849   0.454813  -0.000199
    15  C    0.010285   0.000023  -0.000008  -0.071089  -0.056094   0.000003
    16  C   -0.059287   0.012171  -0.000617   0.308305  -0.003502  -0.000000
    17  N   -0.088530   0.003331   0.000094  -0.106127  -0.000112  -0.000000
    18  O    0.154038  -0.070363   0.001201  -0.132994  -0.000015   0.000000
    19  C    5.021208   0.189022  -0.077325   0.405872  -0.000166  -0.000000
    20  C    0.189022   5.458067   0.247476  -0.065615   0.000011  -0.000000
    21  Cl  -0.077325   0.247476  16.926849  -0.000684  -0.000000   0.000000
    22  N    0.405872  -0.065615  -0.000684   7.007770  -0.002029  -0.000000
    23  C   -0.000166   0.000011  -0.000000  -0.002029   5.103161   0.000455
    24  H   -0.000000  -0.000000   0.000000  -0.000000   0.000455   0.580409
    25  H    0.000000   0.000000  -0.000000  -0.000000  -0.000286  -0.034067
    26  H   -0.000000   0.000000  -0.000000  -0.000006  -0.001020  -0.029301
    27  H    0.000000  -0.000000   0.000000   0.000000   0.004847   0.001965
    28  H   -0.000000   0.000000   0.000000   0.000000  -0.000016  -0.000001
    29  H    0.000000   0.000000  -0.000000  -0.000000   0.000022  -0.000000
    30  H   -0.000000  -0.000000   0.000000   0.000000   0.000012   0.000000
    31  H    0.000000  -0.000000   0.000000   0.000000  -0.000034  -0.000000
    32  H    0.000000  -0.000000  -0.000000  -0.000000   0.000000   0.000000
    33  H   -0.000000   0.000000   0.000000   0.000000  -0.000000  -0.000000
    34  H    0.000000  -0.000000  -0.000000  -0.000000   0.000000  -0.000000
    35  H   -0.000000  -0.000000  -0.000000   0.000000   0.000000  -0.000000
    36  H    0.000000   0.000000  -0.000000   0.000000  -0.000000  -0.000000
    37  H   -0.000007  -0.000001  -0.000000   0.000115  -0.000116   0.000000
    38  H    0.000000  -0.000000  -0.000000  -0.000000   0.000048   0.000000
    39  H    0.000213  -0.000015  -0.000000  -0.002908  -0.004378   0.000000
    40  H   -0.000338   0.000001  -0.000000   0.003943   0.005070  -0.000000
    41  H   -0.027316   0.348071  -0.043840   0.003089   0.000000  -0.000000
    42  H   -0.023119   0.344436  -0.040814  -0.000040  -0.000003  -0.000000
    43  H    0.000227  -0.000054   0.000000   0.010309   0.342056   0.000120
              25         26         27         28         29         30
     1  C    0.366674   0.366898  -0.005084  -0.000002   0.000002   0.000003
     2  C   -0.033162  -0.035412  -0.045587   0.000465  -0.000216  -0.000191
     3  C   -0.002819   0.003252   0.346679  -0.001454   0.001015  -0.000447
     4  C    0.000042  -0.000182  -0.032635  -0.036316  -0.029242  -0.031140
     5  C    0.000001   0.000002  -0.007365   0.358549   0.365249   0.365642
     6  C    0.000018  -0.000016   0.004713   0.004239  -0.006277  -0.003887
     7  C   -0.000000  -0.000000  -0.000215   0.000774   0.001403   0.001990
     8  C   -0.000000   0.000000  -0.000004   0.000127  -0.000119   0.001838
     9  N    0.000000  -0.000000  -0.000000  -0.000002   0.000042  -0.000134
    10  C   -0.000000   0.000000   0.000000  -0.000000  -0.000002   0.000009
    11  C    0.000000  -0.000000  -0.000000  -0.000000   0.000023  -0.000002
    12  C   -0.000000   0.000000  -0.000000   0.000001  -0.000280   0.000007
    13  C    0.000000   0.000000   0.000001   0.000019   0.001228  -0.000014
    14  C   -0.000192   0.000393   0.000678  -0.000161  -0.000041   0.000075
    15  C    0.000002   0.000001   0.000011   0.000002  -0.000001   0.000005
    16  C    0.000000  -0.000002   0.000000  -0.000000  -0.000000   0.000000
    17  N   -0.000000  -0.000000  -0.000000  -0.000000  -0.000000  -0.000000
    18  O   -0.000000  -0.000000   0.000000   0.000000  -0.000000   0.000000
    19  C    0.000000  -0.000000   0.000000  -0.000000   0.000000  -0.000000
    20  C    0.000000   0.000000  -0.000000   0.000000   0.000000  -0.000000
    21  Cl  -0.000000  -0.000000   0.000000   0.000000  -0.000000   0.000000
    22  N   -0.000000  -0.000006   0.000000   0.000000  -0.000000   0.000000
    23  C   -0.000286  -0.001020   0.004847  -0.000016   0.000022   0.000012
    24  H   -0.034067  -0.029301   0.001965  -0.000001  -0.000000   0.000000
    25  H    0.579644  -0.029696   0.001334   0.000001   0.000000  -0.000000
    26  H   -0.029696   0.575428   0.000044   0.000000  -0.000000  -0.000000
    27  H    0.001334   0.000044   0.609618   0.005904   0.000180   0.000185
    28  H    0.000001   0.000000   0.005904   0.593083  -0.030013  -0.030277
    29  H    0.000000  -0.000000   0.000180  -0.030013   0.570008  -0.033627
    30  H   -0.000000  -0.000000   0.000185  -0.030277  -0.033627   0.578543
    31  H    0.000000   0.000000   0.000001  -0.000000   0.000048   0.000233
    32  H   -0.000000   0.000000   0.000000  -0.000000   0.000000  -0.000001
    33  H    0.000000  -0.000000  -0.000000   0.000000  -0.000001   0.000009
    34  H    0.000000  -0.000000  -0.000000  -0.000000   0.000000  -0.000000
    35  H    0.000000  -0.000000  -0.000000  -0.000000   0.000000  -0.000000
    36  H    0.000000   0.000000   0.000000   0.000000   0.000001  -0.000000
    37  H   -0.000000  -0.000000  -0.000000   0.000002  -0.000052   0.000002
    38  H   -0.000000   0.000000   0.000003  -0.000119   0.003665  -0.000068
    39  H   -0.000000   0.000001  -0.000000  -0.000000   0.000000  -0.000000
    40  H   -0.000000   0.000000  -0.000000  -0.000000   0.000000  -0.000000
    41  H    0.000000   0.000000   0.000000  -0.000000   0.000000  -0.000000
    42  H   -0.000000  -0.000000   0.000000   0.000000   0.000000  -0.000000
    43  H    0.000118   0.005323  -0.000190  -0.000000  -0.000000  -0.000000
              31         32         33         34         35         36
     1  C   -0.000000  -0.000000   0.000000   0.000000  -0.000000  -0.000000
     2  C   -0.000012   0.000000   0.000000  -0.000000  -0.000000  -0.000000
     3  C   -0.000043  -0.000000   0.000000   0.000000   0.000000  -0.000000
     4  C    0.001121   0.000003  -0.000003   0.000000   0.000000   0.000000
     5  C   -0.000013  -0.000001   0.000004  -0.000000   0.000000  -0.000001
     6  C   -0.002337  -0.000002   0.000002   0.000002  -0.000010  -0.000186
     7  C   -0.040433   0.000459   0.000086  -0.000208  -0.000444   0.003072
     8  C    0.369193  -0.000855   0.001479   0.002230   0.004622   0.000881
     9  N   -0.056838  -0.043504  -0.057738  -0.043889  -0.060218   0.004530
    10  C   -0.003346   0.378362   0.370535   0.378808  -0.003003  -0.000137
    11  C    0.003949   0.002412   0.001528  -0.000998   0.369066  -0.032955
    12  C   -0.000416  -0.000216   0.000192   0.000410  -0.030907   0.357973
    13  C    0.005477  -0.000003   0.000012  -0.000000   0.005405  -0.036264
    14  C    0.000523  -0.000003   0.000000  -0.000000   0.000000  -0.000001
    15  C    0.000203  -0.000001   0.000000  -0.000000  -0.000000  -0.000002
    16  C    0.000008   0.000000  -0.000000   0.000000  -0.000000   0.000001
    17  N    0.000000   0.000000  -0.000000   0.000000   0.000000  -0.000002
    18  O   -0.000000  -0.000000   0.000000  -0.000000  -0.000000   0.000000
    19  C    0.000000   0.000000  -0.000000   0.000000  -0.000000   0.000000
    20  C   -0.000000  -0.000000   0.000000  -0.000000  -0.000000   0.000000
    21  Cl   0.000000  -0.000000   0.000000  -0.000000  -0.000000  -0.000000
    22  N    0.000000  -0.000000   0.000000  -0.000000   0.000000   0.000000
    23  C   -0.000034   0.000000  -0.000000   0.000000   0.000000  -0.000000
    24  H   -0.000000   0.000000  -0.000000  -0.000000  -0.000000  -0.000000
    25  H    0.000000  -0.000000   0.000000   0.000000   0.000000   0.000000
    26  H    0.000000   0.000000  -0.000000  -0.000000  -0.000000   0.000000
    27  H    0.000001   0.000000  -0.000000  -0.000000  -0.000000   0.000000
    28  H   -0.000000  -0.000000   0.000000  -0.000000  -0.000000   0.000000
    29  H    0.000048   0.000000  -0.000001   0.000000   0.000000   0.000001
    30  H    0.000233  -0.000001   0.000009  -0.000000  -0.000000  -0.000000
    31  H    0.581456   0.003979   0.000035   0.000136  -0.000163   0.000010
    32  H    0.003979   0.572430  -0.042450  -0.023510   0.000118   0.000003
    33  H    0.000035  -0.042450   0.620183  -0.043489   0.000007  -0.000001
    34  H    0.000136  -0.023510  -0.043489   0.572943   0.003782  -0.000000
    35  H   -0.000163   0.000118   0.000007   0.003782   0.586222  -0.005308
    36  H    0.000010   0.000003  -0.000001  -0.000000  -0.005308   0.596723
    37  H   -0.000149  -0.000002   0.000003  -0.000002  -0.000140  -0.001353
    38  H   -0.000115   0.000001  -0.000011   0.000001  -0.000108  -0.000209
    39  H   -0.000009   0.000000  -0.000000  -0.000000  -0.000000  -0.000000
    40  H    0.000043   0.000007  -0.000001   0.000001   0.000002  -0.000003
    41  H    0.000000   0.000000  -0.000000   0.000000   0.000000   0.000000
    42  H    0.000000   0.000000  -0.000000   0.000000   0.000000  -0.000000
    43  H    0.000000  -0.000000   0.000000  -0.000000  -0.000000   0.000000
              37         38         39         40         41         42
     1  C    0.000000  -0.000000  -0.000001   0.000001  -0.000000  -0.000000
     2  C   -0.000001  -0.000014   0.000144  -0.000146   0.000000   0.000000
     3  C    0.000023  -0.000099   0.000012  -0.000025   0.000000   0.000000
     4  C   -0.000737   0.003360  -0.000161   0.000672  -0.000000  -0.000000
     5  C    0.000145  -0.001092   0.000002  -0.000005  -0.000000  -0.000000
     6  C   -0.002486  -0.002225   0.001236  -0.008630  -0.000000   0.000000
     7  C   -0.045278  -0.046883   0.000238   0.017237   0.000000  -0.000000
     8  C    0.000036  -0.000306   0.000087   0.005598   0.000000   0.000000
     9  N    0.000863   0.001493  -0.000003  -0.000486  -0.000000  -0.000000
    10  C   -0.000002   0.000020   0.000000  -0.000007   0.000000   0.000000
    11  C    0.000078  -0.000512  -0.000001   0.000198   0.000000   0.000000
    12  C   -0.040574  -0.042513   0.000003   0.000454   0.000000   0.000000
    13  C    0.363839   0.355284   0.000017  -0.001310  -0.000000  -0.000000
    14  C    0.002981  -0.000500  -0.031052  -0.032230  -0.000000   0.000000
    15  C    0.001163  -0.000205   0.357978   0.347483   0.000001  -0.000016
    16  C    0.000200   0.000053  -0.033934  -0.028404  -0.000291  -0.000053
    17  N    0.012376   0.000028   0.003758  -0.000809   0.000065  -0.000075
    18  O   -0.000144  -0.000000  -0.000090  -0.000082  -0.000116   0.002821
    19  C   -0.000007   0.000000   0.000213  -0.000338  -0.027316  -0.023119
    20  C   -0.000001  -0.000000  -0.000015   0.000001   0.348071   0.344436
    21  Cl  -0.000000  -0.000000  -0.000000  -0.000000  -0.043840  -0.040814
    22  N    0.000115  -0.000000  -0.002908   0.003943   0.003089  -0.000040
    23  C   -0.000116   0.000048  -0.004378   0.005070   0.000000  -0.000003
    24  H    0.000000   0.000000   0.000000  -0.000000  -0.000000  -0.000000
    25  H   -0.000000  -0.000000  -0.000000  -0.000000   0.000000  -0.000000
    26  H   -0.000000   0.000000   0.000001   0.000000   0.000000  -0.000000
    27  H   -0.000000   0.000003  -0.000000  -0.000000   0.000000   0.000000
    28  H    0.000002  -0.000119  -0.000000  -0.000000  -0.000000   0.000000
    29  H   -0.000052   0.003665   0.000000   0.000000   0.000000   0.000000
    30  H    0.000002  -0.000068  -0.000000  -0.000000  -0.000000  -0.000000
    31  H   -0.000149  -0.000115  -0.000009   0.000043   0.000000   0.000000
    32  H   -0.000002   0.000001   0.000000   0.000007   0.000000   0.000000
    33  H    0.000003  -0.000011  -0.000000  -0.000001  -0.000000  -0.000000
    34  H   -0.000002   0.000001  -0.000000   0.000001   0.000000   0.000000
    35  H   -0.000140  -0.000108  -0.000000   0.000002   0.000000   0.000000
    36  H   -0.001353  -0.000209  -0.000000  -0.000003   0.000000  -0.000000
    37  H    0.599233  -0.053851   0.000049  -0.001652  -0.000000   0.000000
    38  H   -0.053851   0.652869  -0.000001   0.000271   0.000000   0.000000
    39  H    0.000049  -0.000001   0.558528  -0.029828   0.000000   0.000003
    40  H   -0.001652   0.000271  -0.029828   0.538910  -0.000000   0.000000
    41  H   -0.000000   0.000000   0.000000  -0.000000   0.513577  -0.026190
    42  H    0.000000   0.000000   0.000003   0.000000  -0.026190   0.508225
    43  H    0.000002  -0.000000   0.002334   0.000075   0.000000   0.000020
              43
     1  C   -0.006990
     2  C   -0.031670
     3  C    0.004876
     4  C    0.000670
     5  C    0.000008
     6  C    0.003786
     7  C   -0.000182
     8  C   -0.000002
     9  N   -0.000000
    10  C    0.000000
    11  C   -0.000000
    12  C   -0.000000
    13  C    0.000002
    14  C   -0.034836
    15  C   -0.008048
    16  C    0.000733
    17  N    0.000200
    18  O    0.000027
    19  C    0.000227
    20  C   -0.000054
    21  Cl   0.000000
    22  N    0.010309
    23  C    0.342056
    24  H    0.000120
    25  H    0.000118
    26  H    0.005323
    27  H   -0.000190
    28  H   -0.000000
    29  H   -0.000000
    30  H   -0.000000
    31  H    0.000000
    32  H   -0.000000
    33  H    0.000000
    34  H   -0.000000
    35  H   -0.000000
    36  H    0.000000
    37  H    0.000002
    38  H   -0.000000
    39  H    0.002334
    40  H    0.000075
    41  H    0.000000
    42  H    0.000020
    43  H    0.567723
 Mulliken charges:
               1
     1  C   -0.483015
     2  C    0.130833
     3  C   -0.197322
     4  C    0.102957
     5  C   -0.469604
     6  C   -0.077556
     7  C   -0.021558
     8  C    0.120851
     9  N   -0.605770
    10  C   -0.240539
    11  C    0.133078
    12  C   -0.147024
    13  C   -0.320650
    14  C    0.090177
    15  C   -0.358711
    16  C    0.266964
    17  N   -0.106444
    18  O   -0.391841
    19  C    0.495102
    20  C   -0.466560
    21  Cl  -0.012333
    22  N   -0.353976
    23  C   -0.200095
    24  H    0.149996
    25  H    0.152388
    26  H    0.144293
    27  H    0.114916
    28  H    0.135195
    29  H    0.156984
    30  H    0.151234
    31  H    0.137494
    32  H    0.152773
    33  H    0.149618
    34  H    0.153784
    35  H    0.131078
    36  H    0.113226
    37  H    0.165437
    38  H    0.131735
    39  H    0.177779
    40  H    0.183988
    41  H    0.232949
    42  H    0.234806
    43  H    0.143362
 Sum of Mulliken charges =  -0.00000
 Mulliken charges with hydrogens summed into heavy atoms:
               1
     1  C   -0.036338
     2  C    0.130833
     3  C   -0.082406
     4  C    0.102957
     5  C   -0.026191
     6  C   -0.077556
     7  C   -0.021558
     8  C    0.258345
     9  N   -0.605770
    10  C    0.215636
    11  C    0.264156
    12  C   -0.033797
    13  C   -0.023478
    14  C    0.090177
    15  C    0.003056
    16  C    0.266964
    17  N   -0.106444
    18  O   -0.391841
    19  C    0.495102
    20  C    0.001195
    21  Cl  -0.012333
    22  N   -0.353976
    23  C   -0.056733
 Electronic spatial extent (au):  <R**2>=          10389.2685
 Charge=             -0.0000 electrons
 Dipole moment (field-independent basis, Debye):
    X=              2.7827    Y=              2.0923    Z=             -0.4917  Tot=              3.5161
 Quadrupole moment (field-independent basis, Debye-Ang):
   XX=           -133.5910   YY=           -139.4072   ZZ=           -139.7530
   XY=            -15.7874   XZ=            -11.8171   YZ=              5.0136
 Traceless Quadrupole moment (field-independent basis, Debye-Ang):
   XX=              3.9927   YY=             -1.8235   ZZ=             -2.1693
   XY=            -15.7874   XZ=            -11.8171   YZ=              5.0136
 Octapole moment (field-independent basis, Debye-Ang**2):
  XXX=             76.5835  YYY=             10.5497  ZZZ=             -4.2473  XYY=             31.9291
  XXY=             11.4504  XXZ=             12.7240  XZZ=             -3.0690  YZZ=            -11.4911
  YYZ=             -3.4942  XYZ=              9.0385
 Hexadecapole moment (field-independent basis, Debye-Ang**3):
 XXXX=          -9327.6439 YYYY=          -3678.5801 ZZZZ=           -762.7485 XXXY=           -418.1581
 XXXZ=           -397.8401 YYYX=            -91.4500 YYYZ=             23.9030 ZZZX=            -48.4229
 ZZZY=              8.2057 XXYY=          -2095.5064 XXZZ=          -1601.5637 YYZZ=           -771.6666
 XXYZ=             91.8975 YYXZ=             11.4808 ZZXY=            -11.9622
 N-N= 1.958645128818D+03 E-N=-7.189023739304D+03  KE= 1.391217517237D+03
 Unable to Open any file for archive entry.
 1\1\GINC-N2\SP\RB3LYP TD-FC\6-31G\C18H20Cl1N3O1\HPCMGAC13\13-Jun-2025\
 0\\# td=(50-50,nstates=3) b3lyp/6-31g\\[No Title]\\0,1\C,0,0.376212,4.
 764181,0.305401\C,0,-0.31195,3.421245,0.191623\C,0,-1.578279,3.311787,
 -0.404626\C,0,-2.243075,2.08459,-0.515724\C,0,-3.612161,2.033663,-1.16
 241\C,0,-1.629329,0.905627,-0.013607\C,0,-2.32068,-0.415778,-0.158078\
 C,0,-3.213929,-0.835058,0.765904\N,0,-3.890124,-2.057965,0.699932\C,0,
 -4.984743,-2.354869,1.617321\C,0,-3.633803,-2.887968,-0.402257\C,0,-2.
 766425,-2.561164,-1.376506\C,0,-1.989809,-1.25981,-1.390958\C,0,-0.351
 026,1.008784,0.579952\C,0,0.359175,-0.225217,1.138524\C,0,1.600288,-0.
 579299,0.38329\N,0,1.640351,-1.570519,-0.498014\O,0,3.029961,-1.512416
 ,-0.99343\C,0,3.62379,-0.474431,-0.312166\C,0,5.037142,-0.164072,-0.58
 1571\Cl,0,6.189724,-1.296411,0.41617\N,0,2.808401,0.119351,0.528883\C,
 0,0.286977,2.256081,0.679844\H,0,0.466846,5.252365,-0.673033\H,0,-0.18
 506,5.448434,0.95507\H,0,1.382658,4.661121,0.722893\H,0,-2.060967,4.20
 5943,-0.792449\H,0,-3.873577,3.005384,-1.593106\H,0,-3.655932,1.285713
 ,-1.962281\H,0,-4.39179,1.765131,-0.439694\H,0,-3.447677,-0.230489,1.6
 36513\H,0,-4.77991,-1.906147,2.594033\H,0,-5.955156,-1.976974,1.260439
 \H,0,-5.067792,-3.437332,1.755288\H,0,-4.177367,-3.826377,-0.403428\H,
 0,-2.59505,-3.266653,-2.183048\H,0,-0.9049,-1.458421,-1.433546\H,0,-2.
 201945,-0.684113,-2.31126\H,0,0.65021,-0.042189,2.179763\H,0,-0.319204
 ,-1.080262,1.126881\H,0,5.304821,-0.337257,-1.620985\H,0,5.274961,0.84
 6252,-0.261228\H,0,1.271202,2.308369,1.136376\\Version=ES64L-G16RevC.0
 2\State=1-A\HF=-1397.2845457\RMSD=5.694e-09\PG=C01 [X(C18H20Cl1N3O1)]\
 \@
 The archive entry for this job was punched.


 Life may have no meaning.  Or even worse, it may have a
 meaning of which I disapprove.
                                 -- Ashleigh Brilliant
 Job cpu time:       0 days  0 hours 27 minutes 51.8 seconds.
 Elapsed time:       0 days  0 hours  1 minutes 47.9 seconds.
 File lengths (MBytes):  RWF=    631 Int=      0 D2E=      0 Chk=     21 Scr=      2
 Normal termination of Gaussian 16 at Fri Jun 13 11:38:03 2025.
