 Entering Gaussian System, Link 0=g16
 Input=M2451.gjf
 Output=M2451.log
 Initial command:
 /hpc/softwares/Gaussian/g16/l1.exe "/hpc/home/hpcmgac13/pbs.11136.admin1.x8z/Gau-189986.inp" -scrdir="/hpc/home/hpcmgac13/pbs.11136.admin1.x8z/"
 Default linda workers: n2
 Default is to use  16 SMP processors on each worker.
 Entering Link 1 = /hpc/softwares/Gaussian/g16/l1.exe PID=    189987.
  
 Copyright (c) 1988-2021, Gaussian, Inc.  All Rights Reserved.
  
 This is part of the Gaussian(R) 16 program.  It is based on
 the Gaussian(R) 09 system (copyright 2009, Gaussian, Inc.),
 the Gaussian(R) 03 system (copyright 2003, Gaussian, Inc.),
 the Gaussian(R) 98 system (copyright 1998, Gaussian, Inc.),
 the Gaussian(R) 94 system (copyright 1995, Gaussian, Inc.),
 the Gaussian 92(TM) system (copyright 1992, Gaussian, Inc.),
 the Gaussian 90(TM) system (copyright 1990, Gaussian, Inc.),
 the Gaussian 88(TM) system (copyright 1988, Gaussian, Inc.),
 the Gaussian 86(TM) system (copyright 1986, Carnegie Mellon
 University), and the Gaussian 82(TM) system (copyright 1983,
 Carnegie Mellon University). Gaussian is a federally registered
 trademark of Gaussian, Inc.
  
 This software contains proprietary and confidential information,
 including trade secrets, belonging to Gaussian, Inc.
  
 This software is provided under written license and may be
 used, copied, transmitted, or stored only in accord with that
 written license.
  
 The following legend is applicable only to US Government
 contracts under FAR:
  
                    RESTRICTED RIGHTS LEGEND
  
 Use, reproduction and disclosure by the US Government is
 subject to restrictions as set forth in subparagraphs (a)
 and (c) of the Commercial Computer Software - Restricted
 Rights clause in FAR 52.227-19.
  
 Gaussian, Inc.
 340 Quinnipiac St., Bldg. 40, Wallingford CT 06492
  
  
 ---------------------------------------------------------------
 Warning -- This program may not be used in any manner that
 competes with the business of Gaussian, Inc. or will provide
 assistance to any competitor of Gaussian, Inc.  The licensee
 of this program is prohibited from giving any competitor of
 Gaussian, Inc. access to this program.  By using this program,
 the user acknowledges that Gaussian, Inc. is engaged in the
 business of creating and licensing software in the field of
 computational chemistry and represents and warrants to the
 licensee that it is not a competitor of Gaussian, Inc. and that
 it will not use this program in any manner prohibited above.
 ---------------------------------------------------------------
  

 Cite this work as:
 Gaussian 16, Revision C.02,
 M. J. Frisch, G. W. Trucks, H. B. Schlegel, G. E. Scuseria, 
 M. A. Robb, J. R. Cheeseman, G. Scalmani, V. Barone, 
 G. A. Petersson, H. Nakatsuji, X. Li, M. Caricato, A. V. Marenich, 
 J. Bloino, B. G. Janesko, R. Gomperts, B. Mennucci, H. P. Hratchian, 
 J. V. Ortiz, A. F. Izmaylov, J. L. Sonnenberg, D. Williams-Young, 
 F. Ding, F. Lipparini, F. Egidi, J. Goings, B. Peng, A. Petrone, 
 T. Henderson, D. Ranasinghe, V. G. Zakrzewski, J. Gao, N. Rega, 
 G. Zheng, W. Liang, M. Hada, M. Ehara, K. Toyota, R. Fukuda, 
 J. Hasegawa, M. Ishida, T. Nakajima, Y. Honda, O. Kitao, H. Nakai, 
 T. Vreven, K. Throssell, J. A. Montgomery, Jr., J. E. Peralta, 
 F. Ogliaro, M. J. Bearpark, J. J. Heyd, E. N. Brothers, K. N. Kudin, 
 V. N. Staroverov, T. A. Keith, R. Kobayashi, J. Normand, 
 K. Raghavachari, A. P. Rendell, J. C. Burant, S. S. Iyengar, 
 J. Tomasi, M. Cossi, J. M. Millam, M. Klene, C. Adamo, R. Cammi, 
 J. W. Ochterski, R. L. Martin, K. Morokuma, O. Farkas, 
 J. B. Foresman, and D. J. Fox, Gaussian, Inc., Wallingford CT, 2019.
 
 ******************************************
 Gaussian 16:  ES64L-G16RevC.02  7-Dec-2021
                13-Jun-2025 
 ******************************************
 SetLPE:    new flags="-opt 'Tsnet.Node.lindarsharg: ssh'  -nodelist 'n2.head.cm.mguif.local' -env GAUSS_MDEF=4294967296 -env GAUSS_EXEDIR="/hpc/softwares/Gaussian/g16/bsd:/hpc/softwares/Gaussian/g16""
 Will use up to    1 processors via Linda.
 ----------------------------------
 # td=(50-50,nstates=3) b3lyp/6-31g
 ----------------------------------
 1/38=1,172=1/1;
 2/12=2,17=6,18=5,40=1/2;
 3/5=1,6=6,11=9,25=1,30=1,74=-5/1,2,3,8;
 4//1;
 5/5=2,38=5/2;
 8/6=1,10=2,108=3/1;
 9/41=3,42=1,48=2,70=2/14;
 6/7=2,8=2,9=2,10=2/1;
 99/5=1,9=1/99;
 ----------
 [No Title]
 ----------
 Symbolic Z-matrix:
 Charge =  0 Multiplicity = 1
 C                    -1.92775   4.23261   1.19631 
 C                    -0.84885   3.22472   0.86752 
 C                     0.40799   3.28418   1.48738 
 C                     1.42288   2.35994   1.20884 
 C                     2.76441   2.51085   1.895 
 C                     1.18458   1.31935   0.27164 
 C                     2.25422   0.32315  -0.04856 
 C                     2.87283   0.34638  -1.25362 
 N                     3.84809  -0.57018  -1.65204 
 C                     4.6313   -0.34646  -2.86499 
 C                     4.21116  -1.57557  -0.74333 
 C                     3.65929  -1.68803   0.4779 
 C                     2.61278  -0.7269    1.00629 
 C                    -0.08588   1.25329  -0.35002 
 C                    -0.37248   0.1583   -1.37251 
 N                    -1.7949   -0.2317   -1.41617 
 N                    -2.67427   0.36028  -2.2298 
 C                    -3.96812  -0.08686  -1.79166 
 O                    -5.05794   0.23008  -2.28929 
 N                    -3.76985  -0.96897  -0.67843 
 N                    -2.44103  -1.00536  -0.49278 
 C                    -1.81111  -1.78954   0.52581 
 C                    -0.89908  -2.79296   0.17809 
 C                    -0.32217  -3.56475   1.19155 
 C                    -0.67205  -3.34503   2.52952 
 C                    -1.60478  -2.35266   2.8585 
 C                    -2.1804   -1.56788   1.85682 
 C                    -1.0764    2.20241  -0.06031 
 H                    -2.41782   3.99478   2.15018 
 H                    -1.51593   5.24404   1.28857 
 H                    -2.70412   4.25153   0.42551 
 H                     0.61106   4.08452   2.19505 
 H                     2.91807   3.54379   2.22282 
 H                     2.83988   1.87354   2.78626 
 H                     3.58789   2.23587   1.22853 
 H                     2.63018   1.10328  -1.99289 
 H                     4.01032   0.14621  -3.61868 
 H                     5.51938   0.27734  -2.68624 
 H                     4.96032  -1.3065   -3.27386 
 H                     4.96403  -2.26757  -1.10392 
 H                     3.97272  -2.50496   1.12002 
 H                     1.70384  -1.27312   1.31171 
 H                     2.96632  -0.2419    1.93263 
 H                    -0.16866   0.48435  -2.39526 
 H                     0.23123  -0.72616  -1.17533 
 H                    -0.66716  -2.98316  -0.86381 
 H                     0.38528  -4.34472   0.93269 
 H                    -0.22795  -3.95159   3.31152 
 H                    -1.8847   -2.18936   3.89327 
 H                    -2.91005  -0.80139   2.0867 
 H                    -2.03124   2.15068  -0.57365 
 
 Stoichiometry    C22H23N5O
 Framework group  C1[X(C22H23N5O)]
 Deg. of freedom   147
 Full point group                 C1      NOp   1
 Largest Abelian subgroup         C1      NOp   1
 Largest concise Abelian subgroup C1      NOp   1
                         Standard orientation:                         
 ---------------------------------------------------------------------
 Center     Atomic      Atomic             Coordinates (Angstroms)
 Number     Number       Type             X           Y           Z
 ---------------------------------------------------------------------
      1          6           0        1.927745    4.232611   -1.196306
      2          6           0        0.848846    3.224724   -0.867515
      3          6           0       -0.407991    3.284184   -1.487379
      4          6           0       -1.422880    2.359936   -1.208842
      5          6           0       -2.764413    2.510853   -1.895003
      6          6           0       -1.184578    1.319347   -0.271642
      7          6           0       -2.254220    0.323145    0.048559
      8          6           0       -2.872831    0.346379    1.253619
      9          7           0       -3.848089   -0.570183    1.652039
     10          6           0       -4.631304   -0.346462    2.864992
     11          6           0       -4.211158   -1.575571    0.743329
     12          6           0       -3.659285   -1.688029   -0.477896
     13          6           0       -2.612783   -0.726896   -1.006286
     14          6           0        0.085882    1.253291    0.350017
     15          6           0        0.372481    0.158296    1.372508
     16          7           0        1.794895   -0.231695    1.416170
     17          7           0        2.674269    0.360275    2.229800
     18          6           0        3.968124   -0.086856    1.791655
     19          8           0        5.057936    0.230084    2.289287
     20          7           0        3.769852   -0.968965    0.678432
     21          7           0        2.441030   -1.005358    0.492778
     22          6           0        1.811111   -1.789542   -0.525811
     23          6           0        0.899078   -2.792956   -0.178086
     24          6           0        0.322174   -3.564752   -1.191552
     25          6           0        0.672050   -3.345030   -2.529519
     26          6           0        1.604777   -2.352658   -2.858497
     27          6           0        2.180397   -1.567877   -1.856823
     28          6           0        1.076397    2.202412    0.060307
     29          1           0        2.417817    3.994784   -2.150180
     30          1           0        1.515933    5.244037   -1.288566
     31          1           0        2.704123    4.251532   -0.425508
     32          1           0       -0.611063    4.084522   -2.195047
     33          1           0       -2.918068    3.543790   -2.222815
     34          1           0       -2.839882    1.873544   -2.786255
     35          1           0       -3.587889    2.235872   -1.228527
     36          1           0       -2.630183    1.103276    1.992887
     37          1           0       -4.010321    0.146205    3.618676
     38          1           0       -5.519382    0.277337    2.686239
     39          1           0       -4.960317   -1.306497    3.273859
     40          1           0       -4.964034   -2.267571    1.103919
     41          1           0       -3.972718   -2.504961   -1.120019
     42          1           0       -1.703843   -1.273119   -1.311708
     43          1           0       -2.966319   -0.241903   -1.932625
     44          1           0        0.168658    0.484354    2.395260
     45          1           0       -0.231229   -0.726158    1.175325
     46          1           0        0.667160   -2.983155    0.863806
     47          1           0       -0.385276   -4.344720   -0.932686
     48          1           0        0.227950   -3.951594   -3.311524
     49          1           0        1.884701   -2.189357   -3.893268
     50          1           0        2.910048   -0.801388   -2.086701
     51          1           0        2.031237    2.150680    0.573645
 ---------------------------------------------------------------------
 Rotational constants (GHZ):           0.2110451           0.1429032           0.1217171
 Standard basis: 6-31G (6D, 7F)
 There are   298 symmetry adapted cartesian basis functions of A   symmetry.
 There are   298 symmetry adapted basis functions of A   symmetry.
   298 basis functions,   708 primitive gaussians,   298 cartesian basis functions
    99 alpha electrons       99 beta electrons
       nuclear repulsion energy      2581.3875763020 Hartrees.
 NAtoms=   51 NActive=   51 NUniq=   51 SFac= 1.00D+00 NAtFMM=   60 NAOKFM=F Big=F
 Integral buffers will be    131072 words long.
 Regular integral format.
 Two-electron integral symmetry is turned on.
 One-electron integrals computed using PRISM.
 NBasis=   298 RedAO= T EigKep=  4.31D-04  NBF=   298
 NBsUse=   298 1.00D-06 EigRej= -1.00D+00 NBFU=   298
 ExpMin= 1.61D-01 ExpMax= 5.48D+03 ExpMxC= 8.25D+02 IAcc=3 IRadAn=         5 AccDes= 0.00D+00
 Harris functional with IExCor=  402 and IRadAn=       5 diagonalized for initial guess.
 HarFok:  IExCor=  402 AccDes= 0.00D+00 IRadAn=         5 IDoV= 1 UseB2=F ITyADJ=14
 ICtDFT=  3500011 ScaDFX=  1.000000  1.000000  1.000000  1.000000
 FoFCou: FMM=F IPFlag=           0 FMFlag=      100000 FMFlg1=           0
         NFxFlg=           0 DoJE=T BraDBF=F KetDBF=T FulRan=T
         wScrn=  0.000000 ICntrl=       500 IOpCl=  0 I1Cent=   200000004 NGrid=           0
         NMat0=    1 NMatS0=      1 NMatT0=    0 NMatD0=    1 NMtDS0=    0 NMtDT0=    0
 Petite list used in FoFCou.
 Requested convergence on RMS density matrix=1.00D-08 within 128 cycles.
 Requested convergence on MAX density matrix=1.00D-06.
 Requested convergence on             energy=1.00D-06.
 No special actions if energy rises.
 Integral accuracy reduced to 1.0D-05 until final iterations.
 Initial convergence to 1.0D-05 achieved.  Increase integral accuracy.
 SCF Done:  E(RB3LYP) =  -1200.70262931     A.U. after   18 cycles
            NFock= 18  Conv=0.10D-07     -V/T= 2.0056
 DoSCS=F DFT=T ScalE2(SS,OS)=  1.000000  1.000000
 ExpMin= 1.61D-01 ExpMax= 5.48D+03 ExpMxC= 8.25D+02 IAcc=3 IRadAn=         5 AccDes= 0.00D+00
 HarFok:  IExCor=  205 AccDes= 0.00D+00 IRadAn=         5 IDoV=-2 UseB2=F ITyADJ=14
 ICtDFT= 12500011 ScaDFX=  1.000000  1.000000  1.000000  1.000000
 GSVD:  LWork=       -1008 too small for GESVD, short by        4340 words or        4340 for optimal perf.
 Range of M.O.s used for correlation:    29   298
 NBasis=   298 NAE=    99 NBE=    99 NFC=    28 NFV=     0
 NROrb=    270 NOA=    71 NOB=    71 NVA=   199 NVB=   199

 **** Warning!!: The largest alpha MO coefficient is  0.14431376D+02

 Keep R1, R2, and R3 ints in memory in canonical form, NReq=3141224580.
 Orbital symmetries:
       Occupied  (A) (A) (A) (A) (A) (A) (A) (A) (A) (A) (A) (A)
                 (A) (A) (A) (A) (A) (A) (A) (A) (A) (A) (A) (A)
                 (A) (A) (A) (A) (A) (A) (A) (A) (A) (A) (A) (A)
                 (A) (A) (A) (A) (A) (A) (A) (A) (A) (A) (A) (A)
                 (A) (A) (A) (A) (A) (A) (A) (A) (A) (A) (A) (A)
                 (A) (A) (A) (A) (A) (A) (A) (A) (A) (A) (A) (A)
                 (A) (A) (A) (A) (A) (A) (A) (A) (A) (A) (A) (A)
                 (A) (A) (A) (A) (A) (A) (A) (A) (A) (A) (A) (A)
                 (A) (A) (A)
       Virtual   (A) (A) (A) (A) (A) (A) (A) (A) (A) (A) (A) (A)
                 (A) (A) (A) (A) (A) (A) (A) (A) (A) (A) (A) (A)
                 (A) (A) (A) (A) (A) (A) (A) (A) (A) (A) (A) (A)
                 (A) (A) (A) (A) (A) (A) (A) (A) (A) (A) (A) (A)
                 (A) (A) (A) (A) (A) (A) (A) (A) (A) (A) (A) (A)
                 (A) (A) (A) (A) (A) (A) (A) (A) (A) (A) (A) (A)
                 (A) (A) (A) (A) (A) (A) (A) (A) (A) (A) (A) (A)
                 (A) (A) (A) (A) (A) (A) (A) (A) (A) (A) (A) (A)
                 (A) (A) (A) (A) (A) (A) (A) (A) (A) (A) (A) (A)
                 (A) (A) (A) (A) (A) (A) (A) (A) (A) (A) (A) (A)
                 (A) (A) (A) (A) (A) (A) (A) (A) (A) (A) (A) (A)
                 (A) (A) (A) (A) (A) (A) (A) (A) (A) (A) (A) (A)
                 (A) (A) (A) (A) (A) (A) (A) (A) (A) (A) (A) (A)
                 (A) (A) (A) (A) (A) (A) (A) (A) (A) (A) (A) (A)
                 (A) (A) (A) (A) (A) (A) (A) (A) (A) (A) (A) (A)
                 (A) (A) (A) (A) (A) (A) (A) (A) (A) (A) (A) (A)
                 (A) (A) (A) (A) (A) (A) (A)
    24 initial guesses have been made.
 Convergence on wavefunction:    0.001000000000000
 Iteration     1 Dimension    24 NMult     0 NNew     24
 CISAX will form    24 AO SS matrices at one time.
 New state      1 was old state      4
 New state      3 was old state      1
 New state      4 was old state      6
 New state      6 was old state     18
 New state      7 was old state     11
 New state      9 was old state      7
 New state     10 was old state      9
 New state     11 was old state     12
 New state     12 was old state     10
 Vector   6 SDiff=3.04D-01 TDiff=5.04D+01 assumed to be singlet.
 Vector  12 SDiff=2.57D-01 TDiff=3.25D+01 assumed to be singlet.
 Iteration     2 Dimension    36 NMult    24 NNew     12
 New state      6 was old state      7
 Iteration     3 Dimension    48 NMult    36 NNew     12
 Iteration     4 Dimension    60 NMult    48 NNew     12
 Iteration     5 Dimension    70 NMult    60 NNew     10
 Iteration     6 Dimension    78 NMult    70 NNew      8
 Iteration     7 Dimension    82 NMult    78 NNew      4
 Iteration     8 Dimension    84 NMult    82 NNew      2
 Iteration     9 Dimension    86 NMult    84 NNew      2
 Iteration    10 Dimension    88 NMult    86 NNew      2
 Iteration    11 Dimension    90 NMult    88 NNew      2
 ***********************************************************************
 Excited states from <AA,BB:AA,BB> singles matrix:
 ***********************************************************************
 
 Ground to excited state transition densities written to RWF  633
 Ground to excited state transition electric dipole moments (Au):
       state          X           Y           Z        Dip. S.      Osc.
         1        -0.0000     -0.0000      0.0000      0.0000      0.0000
         2         0.0000     -0.0000     -0.0000      0.0000      0.0000
         3         0.1953     -0.0947     -0.0153      0.0473      0.0029
         4        -0.0000     -0.0000      0.0000      0.0000      0.0000
         5        -0.0641     -0.1520     -0.2451      0.0872      0.0063
         6         0.2821     -0.6147     -0.4953      0.7027      0.0517
 Ground to excited state transition velocity dipole moments (Au):
       state          X           Y           Z        Dip. S.      Osc.
         1         0.0000     -0.0000     -0.0000      0.0000      0.0000
         2        -0.0000      0.0000      0.0000      0.0000      0.0000
         3        -0.0138      0.0053     -0.0002      0.0002      0.0016
         4        -0.0000     -0.0000     -0.0000      0.0000      0.0000
         5         0.0066     -0.0081      0.0372      0.0015      0.0091
         6        -0.0224      0.0520      0.0285      0.0040      0.0243
 Ground to excited state transition magnetic dipole moments (Au):
       state          X           Y           Z
         1         0.0000     -0.0000      0.0000
         2        -0.0000     -0.0000      0.0000
         3        -0.0038     -0.0588      0.0545
         4         0.0000      0.0000     -0.0000
         5        -0.1235     -0.0366      0.1065
         6        -0.1386     -0.0416      0.1647
 Ground to excited state transition velocity quadrupole moments (Au):
       state          XX          YY          ZZ          XY          XZ          YZ
         1        -0.0000     -0.0000     -0.0000     -0.0000     -0.0000     -0.0000
         2         0.0000     -0.0000      0.0000      0.0000     -0.0000      0.0000
         3         0.0298      0.0038     -0.0031      0.0256     -0.0253     -0.0152
         4        -0.0000      0.0000     -0.0000     -0.0000     -0.0000     -0.0000
         5         0.0695     -0.0403      0.0984     -0.0837      0.2064     -0.1150
         6        -0.1022     -0.1123      0.0409      0.1946      0.1253     -0.0683
 <0|del|b> * <b|rxdel|0> + <0|del|b> * <b|delr+rdel|0>
 Rotatory Strengths (R) in cgs (10**-40 erg-esu-cm/Gauss)
       state          XX          YY          ZZ    R(velocity)    E-M Angle
         1         0.0000     -0.0000      0.0000      0.0000       90.00
         2         0.0000     -0.0000     -0.0000      0.0000       90.00
         3        -0.7421      0.9854     -2.3272     -0.6946      103.21
         4         0.0000     -0.0000     -0.0000      0.0000       90.00
         5         9.1375     17.7864     -4.6450      7.4263       57.84
         6         4.9252     12.1268     18.9903     12.0141       66.11
 1/2[<0|r|b>*<b|rxdel|0> + (<0|rxdel|b>*<b|r|0>)*]
 Rotatory Strengths (R) in cgs (10**-40 erg-esu-cm/Gauss)
       state          XX          YY          ZZ     R(length)
         1         0.0000     -0.0000     -0.0000      0.0000
         2         0.0000     -0.0000      0.0000      0.0000
         3         0.5271     -3.9365      0.5896     -0.9399
         4         0.0000      0.0000      0.0000      0.0000
         5        -5.5943     -3.9297     18.4608      2.9789
         6        27.6516    -18.0725     57.6766     22.4185
  1/2[<0|del|b>*<b|r|0> + (<0|r|b>*<b|del|0>)*] (Au)
       state          X           Y           Z        Dip. S.   Osc.(frdel)
         1        -0.0000      0.0000     -0.0000      0.0000      0.0000
         2        -0.0000     -0.0000     -0.0000      0.0000      0.0000
         3        -0.0027     -0.0005      0.0000      0.0032      0.0021
         4         0.0000      0.0000     -0.0000      0.0000      0.0000
         5        -0.0004      0.0012     -0.0091      0.0083      0.0055
         6        -0.0063     -0.0320     -0.0141      0.0524      0.0349

 Excitation energies and oscillator strengths:
 
 Excited State   1:      Triplet-A      1.0804 eV 1147.58 nm  f=0.0000  <S**2>=2.000
      98 ->100         0.72486
      98 ->101        -0.16006
      98 <-100         0.24841
 This state for optimization and/or second-order correction.
 Total Energy, E(TD-HF/TD-DFT) =  -1200.66292554    
 Copying the excited state density for this state as the 1-particle RhoCI density.
 
 Excited State   2:      Triplet-A      2.4920 eV  497.53 nm  f=0.0000  <S**2>=2.000
      99 ->100         0.70203
 
 Excited State   3:      Singlet-A      2.5001 eV  495.91 nm  f=0.0029  <S**2>=0.000
      99 ->100         0.70617
 
 Excited State   4:      Triplet-A      2.7770 eV  446.47 nm  f=0.0000  <S**2>=2.000
      94 ->106         0.12746
      99 ->102        -0.15176
      99 ->103         0.53572
      99 ->104         0.11301
      99 ->105         0.38783
 
 Excited State   5:      Singlet-A      2.9678 eV  417.77 nm  f=0.0063  <S**2>=0.000
      97 ->100         0.68258
      98 ->100         0.13510
 
 Excited State   6:      Singlet-A      3.0052 eV  412.57 nm  f=0.0517  <S**2>=0.000
      97 ->100        -0.13279
      98 ->100         0.68625
 SavETr:  write IOETrn=   770 NScale= 10 NData=  16 NLR=1 NState=    6 LETran=     118.

 **********************************************************************

            Population analysis using the SCF Density.

 **********************************************************************

 Orbital symmetries:
       Occupied  (A) (A) (A) (A) (A) (A) (A) (A) (A) (A) (A) (A)
                 (A) (A) (A) (A) (A) (A) (A) (A) (A) (A) (A) (A)
                 (A) (A) (A) (A) (A) (A) (A) (A) (A) (A) (A) (A)
                 (A) (A) (A) (A) (A) (A) (A) (A) (A) (A) (A) (A)
                 (A) (A) (A) (A) (A) (A) (A) (A) (A) (A) (A) (A)
                 (A) (A) (A) (A) (A) (A) (A) (A) (A) (A) (A) (A)
                 (A) (A) (A) (A) (A) (A) (A) (A) (A) (A) (A) (A)
                 (A) (A) (A) (A) (A) (A) (A) (A) (A) (A) (A) (A)
                 (A) (A) (A)
       Virtual   (A) (A) (A) (A) (A) (A) (A) (A) (A) (A) (A) (A)
                 (A) (A) (A) (A) (A) (A) (A) (A) (A) (A) (A) (A)
                 (A) (A) (A) (A) (A) (A) (A) (A) (A) (A) (A) (A)
                 (A) (A) (A) (A) (A) (A) (A) (A) (A) (A) (A) (A)
                 (A) (A) (A) (A) (A) (A) (A) (A) (A) (A) (A) (A)
                 (A) (A) (A) (A) (A) (A) (A) (A) (A) (A) (A) (A)
                 (A) (A) (A) (A) (A) (A) (A) (A) (A) (A) (A) (A)
                 (A) (A) (A) (A) (A) (A) (A) (A) (A) (A) (A) (A)
                 (A) (A) (A) (A) (A) (A) (A) (A) (A) (A) (A) (A)
                 (A) (A) (A) (A) (A) (A) (A) (A) (A) (A) (A) (A)
                 (A) (A) (A) (A) (A) (A) (A) (A) (A) (A) (A) (A)
                 (A) (A) (A) (A) (A) (A) (A) (A) (A) (A) (A) (A)
                 (A) (A) (A) (A) (A) (A) (A) (A) (A) (A) (A) (A)
                 (A) (A) (A) (A) (A) (A) (A) (A) (A) (A) (A) (A)
                 (A) (A) (A) (A) (A) (A) (A) (A) (A) (A) (A) (A)
                 (A) (A) (A) (A) (A) (A) (A) (A) (A) (A) (A) (A)
                 (A) (A) (A) (A) (A) (A) (A)
 The electronic state is 1-A.
 Alpha  occ. eigenvalues --  -19.07399 -14.48640 -14.48365 -14.37507 -14.37404
 Alpha  occ. eigenvalues --  -14.37218 -10.28153 -10.27210 -10.26099 -10.23447
 Alpha  occ. eigenvalues --  -10.23054 -10.22794 -10.22653 -10.22316 -10.22158
 Alpha  occ. eigenvalues --  -10.22018 -10.21926 -10.21203 -10.20412 -10.20370
 Alpha  occ. eigenvalues --  -10.20113 -10.19618 -10.19571 -10.18682 -10.18628
 Alpha  occ. eigenvalues --  -10.18437 -10.18182 -10.17940  -1.17091  -1.00036
 Alpha  occ. eigenvalues --   -0.99161  -0.97411  -0.91132  -0.88274  -0.87129
 Alpha  occ. eigenvalues --   -0.82296  -0.81247  -0.79234  -0.78861  -0.78434
 Alpha  occ. eigenvalues --   -0.77064  -0.74378  -0.72966  -0.69743  -0.69471
 Alpha  occ. eigenvalues --   -0.69042  -0.65459  -0.64864  -0.63976  -0.63028
 Alpha  occ. eigenvalues --   -0.61747  -0.59455  -0.58069  -0.56422  -0.54067
 Alpha  occ. eigenvalues --   -0.53440  -0.52671  -0.51094  -0.50566  -0.49581
 Alpha  occ. eigenvalues --   -0.49074  -0.48209  -0.47260  -0.46966  -0.46842
 Alpha  occ. eigenvalues --   -0.45984  -0.45365  -0.44735  -0.44307  -0.43201
 Alpha  occ. eigenvalues --   -0.42815  -0.42218  -0.41887  -0.41626  -0.41486
 Alpha  occ. eigenvalues --   -0.40379  -0.39845  -0.39618  -0.38459  -0.38255
 Alpha  occ. eigenvalues --   -0.37666  -0.37335  -0.36629  -0.35905  -0.35427
 Alpha  occ. eigenvalues --   -0.34872  -0.34355  -0.33776  -0.33582  -0.32754
 Alpha  occ. eigenvalues --   -0.29840  -0.28502  -0.28191  -0.27553  -0.24992
 Alpha  occ. eigenvalues --   -0.24101  -0.22336  -0.19550  -0.18471
 Alpha virt. eigenvalues --   -0.07454  -0.03376  -0.03313  -0.01649  -0.00884
 Alpha virt. eigenvalues --    0.00754   0.05385   0.06410   0.07100   0.08093
 Alpha virt. eigenvalues --    0.09438   0.09863   0.10093   0.10459   0.10697
 Alpha virt. eigenvalues --    0.11202   0.11916   0.12261   0.12864   0.13086
 Alpha virt. eigenvalues --    0.13718   0.14130   0.14475   0.15136   0.15281
 Alpha virt. eigenvalues --    0.15623   0.16121   0.16280   0.16544   0.16848
 Alpha virt. eigenvalues --    0.17297   0.17678   0.18153   0.19082   0.19882
 Alpha virt. eigenvalues --    0.20390   0.21126   0.22442   0.22804   0.23742
 Alpha virt. eigenvalues --    0.24125   0.25080   0.25611   0.25997   0.26553
 Alpha virt. eigenvalues --    0.27524   0.27698   0.29105   0.31548   0.32444
 Alpha virt. eigenvalues --    0.32676   0.33334   0.35133   0.36294   0.37586
 Alpha virt. eigenvalues --    0.38286   0.40064   0.40785   0.41640   0.42366
 Alpha virt. eigenvalues --    0.44172   0.45200   0.47183   0.48514   0.49814
 Alpha virt. eigenvalues --    0.50084   0.51809   0.51967   0.52369   0.53326
 Alpha virt. eigenvalues --    0.54358   0.54758   0.55306   0.55772   0.56054
 Alpha virt. eigenvalues --    0.56328   0.56957   0.57572   0.57821   0.58202
 Alpha virt. eigenvalues --    0.58592   0.58717   0.59288   0.59642   0.59936
 Alpha virt. eigenvalues --    0.60438   0.61213   0.61331   0.61992   0.62052
 Alpha virt. eigenvalues --    0.62572   0.63138   0.63450   0.64132   0.64869
 Alpha virt. eigenvalues --    0.66235   0.66382   0.66808   0.67465   0.68041
 Alpha virt. eigenvalues --    0.69607   0.69871   0.70368   0.70692   0.71374
 Alpha virt. eigenvalues --    0.73140   0.74086   0.74471   0.75626   0.76089
 Alpha virt. eigenvalues --    0.76485   0.77735   0.78315   0.78525   0.79511
 Alpha virt. eigenvalues --    0.80226   0.80786   0.81328   0.82186   0.82913
 Alpha virt. eigenvalues --    0.83552   0.83787   0.84175   0.84944   0.86076
 Alpha virt. eigenvalues --    0.86409   0.87064   0.87148   0.87534   0.88259
 Alpha virt. eigenvalues --    0.89208   0.90083   0.90810   0.91961   0.92215
 Alpha virt. eigenvalues --    0.92779   0.92880   0.93960   0.94280   0.94687
 Alpha virt. eigenvalues --    0.95539   0.96016   0.96447   0.96520   0.97225
 Alpha virt. eigenvalues --    0.97328   0.98690   0.99608   1.00126   1.02066
 Alpha virt. eigenvalues --    1.02326   1.02613   1.03802   1.05883   1.08019
 Alpha virt. eigenvalues --    1.08354   1.09094   1.09996   1.11284   1.11688
 Alpha virt. eigenvalues --    1.12240   1.14621   1.14889   1.15578   1.16517
 Alpha virt. eigenvalues --    1.17077   1.17384   1.18524   1.19038   1.20930
 Alpha virt. eigenvalues --    1.22973   1.24602   1.25383   1.27447   1.29361
 Alpha virt. eigenvalues --    1.30828   1.32521   1.35536   1.36468   1.38155
 Alpha virt. eigenvalues --    1.40340   1.43228   1.44646   1.47929   1.49868
 Alpha virt. eigenvalues --    1.50666   1.51445   1.53284   1.54689   1.56315
 Alpha virt. eigenvalues --    1.59562   1.65742   1.69264   1.73598   1.75662
 Alpha virt. eigenvalues --    1.88883   1.90238   1.94919   2.07616
          Condensed to atoms (all electrons):
 Mulliken charges:
               1
     1  C   -0.483869
     2  C    0.123737
     3  C   -0.193550
     4  C    0.096866
     5  C   -0.477675
     6  C   -0.059398
     7  C   -0.029298
     8  C    0.117925
     9  N   -0.605858
    10  C   -0.243196
    11  C    0.132989
    12  C   -0.152542
    13  C   -0.316702
    14  C    0.075161
    15  C   -0.141076
    16  N   -0.188334
    17  N   -0.206713
    18  C    0.465287
    19  O   -0.463058
    20  N   -0.194278
    21  N   -0.338898
    22  C    0.295506
    23  C   -0.082845
    24  C   -0.148292
    25  C   -0.099300
    26  C   -0.149765
    27  C   -0.061238
    28  C   -0.190863
    29  H    0.157107
    30  H    0.149089
    31  H    0.159976
    32  H    0.119691
    33  H    0.143760
    34  H    0.155386
    35  H    0.155830
    36  H    0.145407
    37  H    0.157387
    38  H    0.156927
    39  H    0.156773
    40  H    0.136634
    41  H    0.112543
    42  H    0.142275
    43  H    0.141286
    44  H    0.207146
    45  H    0.187496
    46  H    0.161717
    47  H    0.147514
    48  H    0.143413
    49  H    0.148473
    50  H    0.176168
    51  H    0.157281
 Sum of Mulliken charges =  -0.00000
 Mulliken charges with hydrogens summed into heavy atoms:
               1
     1  C   -0.017697
     2  C    0.123737
     3  C   -0.073859
     4  C    0.096866
     5  C   -0.022698
     6  C   -0.059398
     7  C   -0.029298
     8  C    0.263332
     9  N   -0.605858
    10  C    0.227891
    11  C    0.269623
    12  C   -0.039999
    13  C   -0.033141
    14  C    0.075161
    15  C    0.253565
    16  N   -0.188334
    17  N   -0.206713
    18  C    0.465287
    19  O   -0.463058
    20  N   -0.194278
    21  N   -0.338898
    22  C    0.295506
    23  C    0.078872
    24  C   -0.000778
    25  C    0.044113
    26  C   -0.001292
    27  C    0.114930
    28  C   -0.033582
 Electronic spatial extent (au):  <R**2>=          10218.3693
 Charge=             -0.0000 electrons
 Dipole moment (field-independent basis, Debye):
    X=            -11.1881    Y=             -2.0229    Z=             -4.3453  Tot=             12.1716
 Quadrupole moment (field-independent basis, Debye-Ang):
   XX=           -202.8709   YY=           -149.4874   ZZ=           -158.6438
   XY=              4.2423   XZ=            -34.4777   YZ=             -2.1111
 Traceless Quadrupole moment (field-independent basis, Debye-Ang):
   XX=            -32.5369   YY=             20.8467   ZZ=             11.6902
   XY=              4.2423   XZ=            -34.4777   YZ=             -2.1111
 Octapole moment (field-independent basis, Debye-Ang**2):
  XXX=           -330.0645  YYY=             -7.9154  ZZZ=            -30.0451  XYY=            -10.9466
  XXY=             -3.1454  XXZ=            -77.2639  XZZ=            -76.6278  YZZ=            -25.5592
  YYZ=            -27.1624  XYZ=             -6.9579
 Hexadecapole moment (field-independent basis, Debye-Ang**3):
 XXXX=          -8200.5949 YYYY=          -4069.9992 ZZZZ=          -2468.5764 XXXY=            131.0329
 XXXZ=           -827.7668 YYYX=            129.7582 YYYZ=            -30.3294 ZZZX=           -269.8074
 ZZZY=             42.5401 XXYY=          -1853.4842 XXZZ=          -1701.3084 YYZZ=          -1048.6100
 XXYZ=            -85.7837 YYXZ=             10.5908 ZZXY=            -42.7246
 N-N= 2.581387576302D+03 E-N=-7.951637481477D+03  KE= 1.194039555376D+03
 Unable to Open any file for archive entry.
 1\1\GINC-N2\SP\RB3LYP TD-FC\6-31G\C22H23N5O1\HPCMGAC13\13-Jun-2025\0\\
 # td=(50-50,nstates=3) b3lyp/6-31g\\[No Title]\\0,1\C,0,-1.927745,4.23
 2611,1.196306\C,0,-0.848846,3.224724,0.867515\C,0,0.407991,3.284184,1.
 487379\C,0,1.42288,2.359936,1.208842\C,0,2.764413,2.510853,1.895003\C,
 0,1.184578,1.319347,0.271642\C,0,2.25422,0.323145,-0.048559\C,0,2.8728
 31,0.346379,-1.253619\N,0,3.848089,-0.570183,-1.652039\C,0,4.631304,-0
 .346462,-2.864992\C,0,4.211158,-1.575571,-0.743329\C,0,3.659285,-1.688
 029,0.477896\C,0,2.612783,-0.726896,1.006286\C,0,-0.085882,1.253291,-0
 .350017\C,0,-0.372481,0.158296,-1.372508\N,0,-1.794895,-0.231695,-1.41
 617\N,0,-2.674269,0.360275,-2.2298\C,0,-3.968124,-0.086856,-1.791655\O
 ,0,-5.057936,0.230084,-2.289287\N,0,-3.769852,-0.968965,-0.678432\N,0,
 -2.44103,-1.005358,-0.492778\C,0,-1.811111,-1.789542,0.525811\C,0,-0.8
 99078,-2.792956,0.178086\C,0,-0.322174,-3.564752,1.191552\C,0,-0.67205
 ,-3.34503,2.529519\C,0,-1.604777,-2.352658,2.858497\C,0,-2.180397,-1.5
 67877,1.856823\C,0,-1.076397,2.202412,-0.060307\H,0,-2.417817,3.994784
 ,2.15018\H,0,-1.515933,5.244037,1.288566\H,0,-2.704123,4.251532,0.4255
 08\H,0,0.611063,4.084522,2.195047\H,0,2.918068,3.54379,2.222815\H,0,2.
 839882,1.873544,2.786255\H,0,3.587889,2.235872,1.228527\H,0,2.630183,1
 .103276,-1.992887\H,0,4.010321,0.146205,-3.618676\H,0,5.519382,0.27733
 7,-2.686239\H,0,4.960317,-1.306497,-3.273859\H,0,4.964034,-2.267571,-1
 .103919\H,0,3.972718,-2.504961,1.120019\H,0,1.703843,-1.273119,1.31170
 8\H,0,2.966319,-0.241903,1.932625\H,0,-0.168658,0.484354,-2.39526\H,0,
 0.231229,-0.726158,-1.175325\H,0,-0.66716,-2.983155,-0.863806\H,0,0.38
 5276,-4.34472,0.932686\H,0,-0.22795,-3.951594,3.311524\H,0,-1.884701,-
 2.189357,3.893268\H,0,-2.910048,-0.801388,2.086701\H,0,-2.031237,2.150
 68,-0.573645\\Version=ES64L-G16RevC.02\State=1-A\HF=-1200.7026293\RMSD
 =9.957e-09\PG=C01 [X(C22H23N5O1)]\\@
 The archive entry for this job was punched.


 ...THE PHYSICISTS HAVE MADE THEIR UNIVERSE, AND IF YOU DO NOT LIKE
 IT, YOU MUST MAKE YOUR OWN.
                               -- E. R. HARRISON IN "COSMOLOGY" (1980)
 Job cpu time:       0 days  0 hours 58 minutes  7.0 seconds.
 Elapsed time:       0 days  0 hours  3 minutes 44.7 seconds.
 File lengths (MBytes):  RWF=    835 Int=      0 D2E=      0 Chk=     29 Scr=      2
 Normal termination of Gaussian 16 at Fri Jun 13 11:41:44 2025.
