 Entering Gaussian System, Link 0=g16
 Input=M2836.gjf
 Output=M2836.log
 Initial command:
 /hpc/softwares/Gaussian/g16/l1.exe "/hpc/home/hpcmgac13/pbs.11139.admin1.x8z/Gau-191072.inp" -scrdir="/hpc/home/hpcmgac13/pbs.11139.admin1.x8z/"
 Default linda workers: n2
 Default is to use  16 SMP processors on each worker.
 Entering Link 1 = /hpc/softwares/Gaussian/g16/l1.exe PID=    191073.
  
 Copyright (c) 1988-2021, Gaussian, Inc.  All Rights Reserved.
  
 This is part of the Gaussian(R) 16 program.  It is based on
 the Gaussian(R) 09 system (copyright 2009, Gaussian, Inc.),
 the Gaussian(R) 03 system (copyright 2003, Gaussian, Inc.),
 the Gaussian(R) 98 system (copyright 1998, Gaussian, Inc.),
 the Gaussian(R) 94 system (copyright 1995, Gaussian, Inc.),
 the Gaussian 92(TM) system (copyright 1992, Gaussian, Inc.),
 the Gaussian 90(TM) system (copyright 1990, Gaussian, Inc.),
 the Gaussian 88(TM) system (copyright 1988, Gaussian, Inc.),
 the Gaussian 86(TM) system (copyright 1986, Carnegie Mellon
 University), and the Gaussian 82(TM) system (copyright 1983,
 Carnegie Mellon University). Gaussian is a federally registered
 trademark of Gaussian, Inc.
  
 This software contains proprietary and confidential information,
 including trade secrets, belonging to Gaussian, Inc.
  
 This software is provided under written license and may be
 used, copied, transmitted, or stored only in accord with that
 written license.
  
 The following legend is applicable only to US Government
 contracts under FAR:
  
                    RESTRICTED RIGHTS LEGEND
  
 Use, reproduction and disclosure by the US Government is
 subject to restrictions as set forth in subparagraphs (a)
 and (c) of the Commercial Computer Software - Restricted
 Rights clause in FAR 52.227-19.
  
 Gaussian, Inc.
 340 Quinnipiac St., Bldg. 40, Wallingford CT 06492
  
  
 ---------------------------------------------------------------
 Warning -- This program may not be used in any manner that
 competes with the business of Gaussian, Inc. or will provide
 assistance to any competitor of Gaussian, Inc.  The licensee
 of this program is prohibited from giving any competitor of
 Gaussian, Inc. access to this program.  By using this program,
 the user acknowledges that Gaussian, Inc. is engaged in the
 business of creating and licensing software in the field of
 computational chemistry and represents and warrants to the
 licensee that it is not a competitor of Gaussian, Inc. and that
 it will not use this program in any manner prohibited above.
 ---------------------------------------------------------------
  

 Cite this work as:
 Gaussian 16, Revision C.02,
 M. J. Frisch, G. W. Trucks, H. B. Schlegel, G. E. Scuseria, 
 M. A. Robb, J. R. Cheeseman, G. Scalmani, V. Barone, 
 G. A. Petersson, H. Nakatsuji, X. Li, M. Caricato, A. V. Marenich, 
 J. Bloino, B. G. Janesko, R. Gomperts, B. Mennucci, H. P. Hratchian, 
 J. V. Ortiz, A. F. Izmaylov, J. L. Sonnenberg, D. Williams-Young, 
 F. Ding, F. Lipparini, F. Egidi, J. Goings, B. Peng, A. Petrone, 
 T. Henderson, D. Ranasinghe, V. G. Zakrzewski, J. Gao, N. Rega, 
 G. Zheng, W. Liang, M. Hada, M. Ehara, K. Toyota, R. Fukuda, 
 J. Hasegawa, M. Ishida, T. Nakajima, Y. Honda, O. Kitao, H. Nakai, 
 T. Vreven, K. Throssell, J. A. Montgomery, Jr., J. E. Peralta, 
 F. Ogliaro, M. J. Bearpark, J. J. Heyd, E. N. Brothers, K. N. Kudin, 
 V. N. Staroverov, T. A. Keith, R. Kobayashi, J. Normand, 
 K. Raghavachari, A. P. Rendell, J. C. Burant, S. S. Iyengar, 
 J. Tomasi, M. Cossi, J. M. Millam, M. Klene, C. Adamo, R. Cammi, 
 J. W. Ochterski, R. L. Martin, K. Morokuma, O. Farkas, 
 J. B. Foresman, and D. J. Fox, Gaussian, Inc., Wallingford CT, 2019.
 
 ******************************************
 Gaussian 16:  ES64L-G16RevC.02  7-Dec-2021
                13-Jun-2025 
 ******************************************
 SetLPE:    new flags="-opt 'Tsnet.Node.lindarsharg: ssh'  -nodelist 'n2.head.cm.mguif.local' -env GAUSS_MDEF=4294967296 -env GAUSS_EXEDIR="/hpc/softwares/Gaussian/g16/bsd:/hpc/softwares/Gaussian/g16""
 Will use up to    1 processors via Linda.
 ----------------------------------
 # td=(50-50,nstates=3) b3lyp/6-31g
 ----------------------------------
 1/38=1,172=1/1;
 2/12=2,17=6,18=5,40=1/2;
 3/5=1,6=6,11=9,25=1,30=1,74=-5/1,2,3,8;
 4//1;
 5/5=2,38=5/2;
 8/6=1,10=2,108=3/1;
 9/41=3,42=1,48=2,70=2/14;
 6/7=2,8=2,9=2,10=2/1;
 99/5=1,9=1/99;
 ----------
 [No Title]
 ----------
 Symbolic Z-matrix:
 Charge =  0 Multiplicity = 1
 C                     5.11554  -3.62404   0.19814 
 C                     4.21089  -2.41174   0.14873 
 C                     3.459    -2.02929   1.26838 
 C                     2.59238  -0.92736   1.23629 
 C                     2.47925  -0.17141   0.04454 
 C                    -0.62945   2.09782  -0.28943 
 C                    -0.05472   3.29424  -0.00943 
 N                     1.30199   3.41088   0.26442 
 C                     1.92383   4.72177   0.45963 
 C                     2.07284   2.25275   0.26432 
 C                     1.56687   1.01705  -0.00736 
 C                    -0.40831  -0.35426  -0.67434 
 O                    -2.68427  -0.46331   0.1877 
 C                    -4.05455  -0.65881   0.06895 
 C                    -4.72078  -0.93018  -1.1363 
 C                    -6.11181  -1.1079   -1.13099 
 C                    -6.84191  -1.01832   0.05658 
 C                    -6.16718  -0.74703   1.25737 
 C                    -4.78517  -0.56809   1.26727 
 C                     3.22204  -0.54903  -1.09846 
 C                     3.09958   0.22111  -2.39717 
 C                     4.07789  -1.65844  -1.02499 
 H                     5.56691  -3.74725   1.18888 
 H                     4.55943  -4.54588  -0.02154 
 H                     5.92502  -3.54967  -0.53589 
 H                     3.54507  -2.60231   2.18841 
 H                    -0.62318   4.21527   0.03571 
 H                     1.19442   5.41295   0.88959 
 H                     2.76214   4.63314   1.15585 
 H                     2.29417   5.14469  -0.48363 
 H                     3.11971   2.39163   0.50766 
 H                    -4.17718  -1.0056   -2.06969 
 H                    -6.62083  -1.31828  -2.06704 
 H                    -7.9179   -1.15787   0.05144 
 H                    -6.72186  -0.67609   2.18819 
 H                    -4.24436  -0.35937   2.18325 
 H                     2.05116   0.31356  -2.70352 
 H                     3.49695   1.2398   -2.30844 
 H                     3.6467   -0.28203  -3.20053 
 H                     4.64882  -1.94087  -1.90618 
 C                    -1.83607  -0.54705  -1.03878 
 H                    -1.99378  -1.53049  -1.49613 
 H                    -2.2028    0.21994  -1.73659 
 C                     1.78684  -0.56496   2.46605 
 H                     0.71268  -0.55888   2.24616 
 H                     1.96513  -1.28172   3.27353 
 H                     2.04149   0.43445   2.83928 
 H                    -1.70117   2.06086  -0.4343 
 C                     0.13924   0.85651  -0.3455 
 H                     0.21597  -1.23974  -0.63804 
 
                          Input orientation:                          
 ---------------------------------------------------------------------
 Center     Atomic      Atomic             Coordinates (Angstroms)
 Number     Number       Type             X           Y           Z
 ---------------------------------------------------------------------
      1          6           0        5.115539   -3.624042    0.198135
      2          6           0        4.210892   -2.411743    0.148732
      3          6           0        3.458997   -2.029285    1.268382
      4          6           0        2.592381   -0.927356    1.236287
      5          6           0        2.479251   -0.171405    0.044543
      6          6           0       -0.629450    2.097824   -0.289429
      7          6           0       -0.054715    3.294235   -0.009426
      8          7           0        1.301991    3.410877    0.264421
      9          6           0        1.923829    4.721767    0.459634
     10          6           0        2.072836    2.252752    0.264315
     11          6           0        1.566871    1.017054   -0.007361
     12          6           0       -0.408307   -0.354263   -0.674337
     13          8           0       -2.684268   -0.463310    0.187699
     14          6           0       -4.054550   -0.658810    0.068952
     15          6           0       -4.720784   -0.930179   -1.136301
     16          6           0       -6.111809   -1.107898   -1.130987
     17          6           0       -6.841905   -1.018316    0.056582
     18          6           0       -6.167175   -0.747026    1.257374
     19          6           0       -4.785169   -0.568090    1.267265
     20          6           0        3.222039   -0.549033   -1.098460
     21          6           0        3.099579    0.221105   -2.397169
     22          6           0        4.077895   -1.658444   -1.024987
     23          1           0        5.566909   -3.747251    1.188882
     24          1           0        4.559428   -4.545883   -0.021541
     25          1           0        5.925016   -3.549666   -0.535887
     26          1           0        3.545074   -2.602305    2.188406
     27          1           0       -0.623176    4.215267    0.035706
     28          1           0        1.194415    5.412949    0.889592
     29          1           0        2.762140    4.633139    1.155852
     30          1           0        2.294171    5.144687   -0.483627
     31          1           0        3.119705    2.391635    0.507657
     32          1           0       -4.177177   -1.005599   -2.069688
     33          1           0       -6.620829   -1.318277   -2.067041
     34          1           0       -7.917898   -1.157865    0.051441
     35          1           0       -6.721862   -0.676092    2.188189
     36          1           0       -4.244355   -0.359366    2.183246
     37          1           0        2.051161    0.313559   -2.703518
     38          1           0        3.496950    1.239796   -2.308440
     39          1           0        3.646704   -0.282030   -3.200527
     40          1           0        4.648815   -1.940869   -1.906183
     41          6           0       -1.836070   -0.547049   -1.038783
     42          1           0       -1.993776   -1.530487   -1.496133
     43          1           0       -2.202799    0.219935   -1.736586
     44          6           0        1.786836   -0.564961    2.466048
     45          1           0        0.712681   -0.558881    2.246163
     46          1           0        1.965134   -1.281718    3.273529
     47          1           0        2.041485    0.434445    2.839283
     48          1           0       -1.701174    2.060863   -0.434296
     49          6           0        0.139239    0.856512   -0.345503
     50          1           0        0.215966   -1.239738   -0.638043
 ---------------------------------------------------------------------
                    Distance matrix (angstroms):
                    1          2          3          4          5
     1  C    0.000000
     2  C    1.513438   0.000000
     3  C    2.536298   1.401869   0.000000
     4  C    3.836170   2.450665   1.402249   0.000000
     5  C    4.346758   2.833470   2.430926   1.415809   0.000000
     6  C    8.122953   6.630014   6.014583   4.675438   3.863284
     7  C    8.639280   7.125911   6.505292   5.136219   4.293548
     8  N    8.002351   6.509838   5.937674   4.629244   3.777172
     9  C    8.939123   7.497618   6.970475   5.741319   4.942057
    10  C    6.618091   5.132461   4.611446   3.365671   2.467795
    11  C    5.845943   4.332651   3.806290   2.525680   1.499188
    12  C    6.478081   5.123248   4.640678   3.603200   2.981311
    13  O    8.415897   7.165273   6.431163   5.399806   5.173744
    14  C    9.638455   8.449655   7.731120   6.753997   6.552001
    15  C   10.285469   9.144462   8.596473   7.688405   7.335573
    16  C   11.582352  10.483122   9.909907   9.022167   8.721537
    17  C   12.238885  11.140667  10.421089   9.508193   9.359559
    18  C   11.691828  10.569042   9.711205   8.761437   8.750027
    19  C   10.416617   9.250907   8.372656   7.386357   7.377276
    20  C    3.836949   2.450103   2.801649   2.447579   1.414494
    21  C    5.058147   3.827338   4.316214   3.844244   2.549672
    22  C    2.536988   1.400987   2.404184   2.802606   2.431222
    23  H    1.095671   2.168934   2.720482   4.099009   4.861051
    24  H    1.098776   2.169107   3.034488   4.306407   4.844333
    25  H    1.095250   2.168362   3.412945   4.596038   4.860334
    26  H    2.733402   2.154042   1.087293   2.149327   3.411950
    27  H    9.716687   8.203551   7.561617   6.182861   5.372897
    28  H    9.875248   8.418659   7.788367   6.501844   5.792229
    29  H    8.639256   7.262474   6.699714   5.563667   4.939502
    30  H    9.236640   7.821338   7.476111   6.317970   5.345470
    31  H    6.345670   4.938821   4.498706   3.438702   2.682132
    32  H    9.917350   8.789672   8.396535   7.534090   7.033768
    33  H   12.173328  11.109973  10.641122   9.795307   9.411990
    34  H   13.265520  12.193819  11.474932  10.579365  10.443843
    35  H   12.360210  11.255975  10.311502   9.366129   9.460994
    36  H   10.109718   8.935474   7.935190   6.925338   7.058063
    37  H    5.771889   4.497448   4.821505   4.165916   2.823170
    38  H    5.706108   4.458828   4.845822   4.252044   2.926385
    39  H    4.987727   4.008930   4.802008   4.605796   3.450458
    40  H    2.734786   2.153178   3.391364   3.889890   3.412234
    41  C    7.702124   6.438402   5.963033   4.993171   4.465053
    42  H    7.602360   6.479205   6.133847   5.372404   4.922272
    43  H    8.489840   7.184399   6.792993   5.757430   5.024655
    44  C    5.057833   3.828395   2.524831   1.514115   2.549120
    45  H    5.742368   4.479932   3.265026   2.165386   2.849217
    46  H    4.986941   4.010579   2.609808   2.160872   3.453037
    47  H    5.735572   4.477296   3.247620   2.174301   2.892968
    48  H    8.898634   7.436172   6.801161   5.491349   4.763220
    49  C    6.718219   5.244437   4.685429   3.420841   2.585422
    50  H    5.512705   4.236985   3.843838   3.042703   2.594170
                    6          7          8          9         10
     6  C    0.000000
     7  C    1.356511   0.000000
     8  N    2.400275   1.388974   0.000000
     9  C    3.737032   2.484452   1.463975   0.000000
    10  C    2.762786   2.384553   1.391207   2.481207   0.000000
    11  C    2.464032   2.795550   2.423719   3.751053   1.362629
    12  C    2.491945   3.725409   4.240597   5.700073   3.719364
    13  O    3.318032   4.590485   5.559269   6.942156   5.478403
    14  C    4.411210   5.624179   6.730014   8.052593   6.786768
    15  C    5.159943   6.394351   7.555171   8.868054   7.631910
    16  C    6.406335   7.571332   8.793800  10.054181   8.957078
    17  C    6.958782   8.041667   9.272755  10.485661   9.498192
    18  C    6.414996   7.436312   8.605960   9.798389   8.825113
    19  C    5.176910   6.238965   7.341076   8.581696   7.483000
    20  C    4.742821   5.166606   4.607051   5.647507   3.320817
    21  C    4.676569   5.009493   4.526591   5.458907   3.502183
    22  C    6.067099   6.529844   5.921675   6.895737   4.580395
    23  H    8.645529   9.089616   8.383493   9.248140   7.004528
    24  H    8.434160   9.097138   8.602482   9.647137   7.244742
    25  H    8.655398   9.103479   8.394165   9.242141   7.010540
    26  H    6.757036   7.249699   6.700112   7.697994   5.425974
    27  H    2.142269   1.083275   2.098957   2.631253   3.342485
    28  H    3.963159   2.618684   2.100168   1.092996   3.339078
    29  H    4.474320   3.329446   2.102524   1.093316   2.633671
    30  H    4.227132   3.027591   2.133095   1.098069   2.995279
    31  H    3.844195   3.340510   2.098119   2.619531   1.083715
    32  H    5.038544   6.303011   7.414486   8.741994   7.424762
    33  H    7.122238   8.283894   9.516916  10.764636   9.683351
    34  H    7.989817   9.036291  10.291993  11.471542  10.558996
    35  H    7.137975   8.064977   9.207954  10.337928   9.467108
    36  H    5.021896   5.975759   6.975570   8.175283   7.100166
    37  H    4.024562   4.536218   4.354687   5.427158   3.545275
    38  H    4.673307   4.703245   4.018837   4.718163   3.110185
    39  H    5.694180   6.055848   5.580422   6.434521   4.572451
    40  H    6.839957   7.288840   6.674874   7.577160   5.378958
    41  C    3.002135   4.357553   5.216411   6.643983   4.981616
    42  H    4.059823   5.408160   6.195055   7.633042   5.826612
    43  H    2.845375   4.129003   5.144871   6.489910   5.139748
    44  C    4.530068   4.940918   4.570506   5.656320   3.587329
    45  H    3.910067   4.530241   4.475887   5.704718   3.699057
    46  H    5.554083   5.983054   5.613817   6.630350   4.643215
    47  H    4.437292   4.548362   4.004487   4.904865   3.152409
    48  H    1.082102   2.100607   3.365968   4.584776   3.842919
    49  C    1.461124   2.468412   2.872069   4.332805   2.461740
    50  H    3.460575   4.585340   4.860258   6.297716   4.057056
                   11         12         13         14         15
    11  C    0.000000
    12  C    2.495335   0.000000
    13  O    4.505742   2.436185   0.000000
    14  C    5.866406   3.733673   1.389242   0.000000
    15  C    6.678385   4.375220   2.473528   1.403618   0.000000
    16  C    8.046122   5.771172   3.728601   2.423602   1.402342
    17  C    8.651840   6.508947   4.196566   2.810471   2.435137
    18  C    8.032870   6.086898   3.654496   2.425554   2.802726
    19  C    6.669765   4.792960   2.364366   1.406410   2.431539
    20  C    2.526402   3.660222   6.045330   7.370458   7.952053
    21  C    2.948544   3.950248   6.372037   7.618239   8.004581
    22  C    3.807768   4.685067   6.973220   8.266355   8.829468
    23  H    6.334817   7.119491   8.936921  10.166867  10.916913
    24  H    6.316792   6.532550   8.317591   9.450828  10.021893
    25  H    6.334643   7.095121   9.174363  10.407431  10.979766
    26  H    4.672734   5.373845   6.883519   8.125487   9.064993
    27  H    3.876432   4.629356   5.114713   5.960877   6.681288
    28  H    4.501904   6.186706   7.075822   8.067920   8.906688
    29  H    3.982186   6.186720   7.521600   8.697893   9.602011
    30  H    4.218193   6.130107   7.528955   8.619291   9.302665
    31  H    2.136822   4.624277   6.476047   7.808176   8.672388
    32  H    6.429495   4.071317   2.760190   2.170042   1.082778
    33  H    8.759822   6.439284   4.616420   3.403403   2.151062
    34  H    9.731114   7.587258   5.281274   3.895487   3.418203
    35  H    8.740153   6.939640   4.511031   3.406761   3.888587
    36  H    6.361104   4.783416   2.535130   2.143812   3.401794
    37  H    2.828198   3.257690   5.602406   6.775825   7.061324
    38  H    3.011608   4.523533   6.880315   8.141367   8.579852
    39  H    4.026119   4.778072   7.182906   8.375009   8.642684
    40  H    4.674742   5.441438   7.767987   9.016285   9.455348
    41  C    3.884618   1.486100   1.493556   2.482181   2.911679
    42  H    4.624350   2.138355   2.109724   2.730586   2.815390
    43  H    4.223272   2.162933   2.097977   2.731509   2.832552
    44  C    2.944301   3.837325   5.019161   6.314797   7.447108
    45  H    2.879511   3.134933   3.973118   5.241825   6.411043
    46  H    4.025817   4.698834   5.639954   6.847914   8.016962
    47  H    2.944159   4.355349   5.492686   6.784658   7.962145
    48  H    3.457156   2.749902   2.779353   3.631564   4.307805
    49  C    1.475889   1.368910   3.162029   4.478375   5.238077
    50  H    2.704776   1.084020   3.113848   4.367451   4.971477
                   16         17         18         19         20
    16  C    0.000000
    17  C    1.396920   0.000000
    18  C    2.416105   1.403838   0.000000
    19  C    2.793381   2.428707   1.393577   0.000000
    20  C    9.350621  10.140874   9.682277   8.349395   0.000000
    21  C    9.392504  10.314561  10.008281   8.730416   1.514845
    22  C   10.205117  10.991887  10.535716   9.219392   1.403097
    23  H   12.195919  12.755699  12.111762  10.829530   4.578094
    24  H   11.266140  11.934832  11.451068  10.237448   4.350077
    25  H   12.296403  13.028930  12.541597  11.262736   4.077545
    26  H   10.320223  10.721149   9.931599   8.624354   3.888929
    27  H    7.734491   8.127941   7.540076   6.459058   6.226601
    28  H    9.999255  10.326544   9.605913   8.465866   6.603699
    29  H   10.813700  11.197545  10.425409   9.166628   5.669950
    30  H   10.496399  11.033690  10.456469   9.263827   5.801500
    31  H   10.007634  10.538734   9.831552   8.474905   3.352255
    32  H    2.152772   3.409100   3.885395   3.419989   7.476639
    33  H    1.086074   2.156067   3.403508   3.879436   9.920279
    34  H    2.159303   1.085017   2.165201   3.411752  11.215665
    35  H    3.402286   2.162239   1.085876   2.147218  10.473747
    36  H    3.877090   3.421137   2.169045   1.084005   8.157978
    37  H    8.433711   9.406310   9.184473   7.954862   2.165925
    38  H    9.961240  10.843630  10.490844   9.200414   2.177048
    39  H   10.009677  11.007352  10.788945   9.546700   2.161092
    40  H   10.820619  11.693596  11.332210  10.047654   2.150654
    41  C    4.313351   5.145901   4.906200   3.743726   5.058461
    42  H    4.155732   5.116405   5.060916   4.044064   5.322229
    43  H    4.172559   5.125429   5.061135   4.038903   5.516102
    44  C    8.696093   8.970297   8.047380   6.680445   3.842627
    45  H    7.634149   7.878903   6.953094   5.584325   4.181325
    46  H    9.201466   9.379876   8.395548   7.078203   4.607703
    47  H    9.198808   9.421707   8.442773   7.076689   4.226909
    48  H    5.475411   6.012439   5.539960   4.395194   5.611657
    49  C    6.599355   7.239684   6.701597   5.374040   3.470757
    50  H    6.348316   7.095426   6.676815   5.393761   3.118579
                   21         22         23         24         25
    21  C    0.000000
    22  C    2.524419   0.000000
    23  H    5.890274   3.388435   0.000000
    24  H    5.522585   3.094525   1.765773   0.000000
    25  H    5.066180   2.688456   1.772599   1.766870   0.000000
    26  H    5.403481   3.391263   2.529381   3.112921   3.739437
    27  H    5.977551   7.597738  10.151289  10.179411  10.173481
    28  H    6.433327   7.873034  10.154681  10.551389  10.234209
    29  H    5.674845   6.787583   8.837350   9.427139   8.934431
    30  H    5.343406   7.053888   9.621573   9.962533   9.422183
    31  H    3.626240   4.435117   6.643704   7.105069   6.652654
    32  H    7.386692   8.346486  10.634009   9.646594  10.529916
    33  H    9.847081  10.754733  12.846864  11.815230  12.834397
    34  H   11.370226  12.054390  13.778197  12.929333  14.060296
    35  H   10.876175  11.310361  12.706082  12.129538  13.252228
    36  H    8.674705   9.013335  10.427244   9.994729  10.999446
    37  H    1.096165   3.288451   6.633358   6.090860   5.884716
    38  H    1.097045   3.222506   6.433244   6.311327   5.654767
    39  H    1.094475   2.610252   5.912855   5.396245   4.792542
    40  H    2.704687   1.087299   3.699370   3.216514   2.468730
    41  C    5.176476   6.017505   8.367071   7.611035   8.336850
    42  H    5.460971   6.091268   8.323900   7.362847   8.228391
    43  H    5.343368   6.594073   9.201374   8.448794   9.039521
    44  C    5.098242   4.316478   5.103633   5.451890   5.919849
    45  H    5.278844   4.820179   5.903141   5.986328   6.622162
    46  H    5.975137   4.804469   4.837085   5.314379   5.944401
    47  H    5.346542   4.843525   5.713057   6.271205   6.507436
    48  H    5.503164   6.897811   9.444254   9.111235   9.468217
    49  C    3.657416   4.722257   7.280699   6.987767   7.275017
    50  H    3.680192   3.903785   6.185294   5.493299   6.159501
                   26         27         28         29         30
    26  H    0.000000
    27  H    8.275730   0.000000
    28  H    8.453213   2.338205   0.000000
    29  H    7.350565   3.590224   1.771090   0.000000
    30  H    8.289777   3.105550   1.779651   1.780047   0.000000
    31  H    5.286331   4.190171   3.602909   2.360582   3.040304
    32  H    8.961808   6.657406   8.877449   9.505451   9.067522
    33  H   11.095185   8.426951  10.729824  11.569205  11.124492
    34  H   11.749585   9.060009  11.265538  12.199125  12.012278
    35  H   10.446065   8.108794  10.071257  10.917873  11.059336
    36  H    8.105924   6.217084   8.035756   8.664388   8.953163
    37  H    5.887696   5.466146   6.296684   5.836009   5.322290
    38  H    5.914869   5.596775   5.739711   4.904696   4.474907
    39  H    5.868101   6.995053   7.428027   6.627170   6.217729
    40  H    4.292016   8.334437   8.592315   7.493543   7.600863
    41  C    6.602692   5.030437   6.958739   7.265969   7.054286
    42  H    6.738211   6.102357   8.004221   8.224479   7.998100
    43  H    7.510569   4.647462   6.738343   7.245218   6.785708
    44  C    2.705412   5.879226   6.210603   5.448676   6.446553
    45  H    3.493046   5.427994   6.142891   5.687366   6.517941
    46  H    2.327585   6.884743   7.148128   6.332875   7.451387
    47  H    3.450547   5.408796   5.413347   4.580646   5.769919
    48  H    7.493118   2.454473   4.623159   5.391321   5.047295
    49  C    5.475749   3.465232   4.837352   4.837002   4.801172
    50  H    4.574753   5.560142   6.895598   6.647687   6.715926
                   31         32         33         34         35
    31  H    0.000000
    32  H    8.451532   0.000000
    33  H   10.736411   2.463577   0.000000
    34  H   11.603265   4.302949   2.489194   0.000000
    35  H   10.444691   4.971269   4.304601   2.495656   0.000000
    36  H    8.037723   4.302276   4.963071   4.321702   2.497675
    37  H    3.971376   6.397977   8.847113  10.446867  10.093272
    38  H    3.065852   7.999439  10.438940  11.900276  11.327595
    39  H    4.601830   7.938228  10.381755  12.045016  11.691908
    40  H    5.189932   8.876914  11.287975  12.742357  12.151372
    41  C    5.965488   2.598810   4.954395   6.208890   5.856702
    42  H    6.748771   2.317696   4.666968   6.134253   6.054669
    43  H    6.171058   2.347564   4.689807   6.144732   6.052161
    44  C    3.788574   7.505765   9.581504  10.018170   8.513959
    45  H    4.185894   6.537342   8.541708   8.925384   7.435693
    46  H    4.740950   8.145808  10.111468  10.395745   8.775457
    47  H    3.229494   8.052545  10.108399  10.464073   8.857396
    48  H    4.923166   4.267117   6.187685   7.017393   6.290919
    49  C    3.459431   5.007167   7.306977   8.314610   7.472829
    50  H    4.788653   4.626460   6.984982   8.163445   7.512572
                   36         37         38         39         40
    36  H    0.000000
    37  H    7.997925   0.000000
    38  H    9.091775   1.761904   0.000000
    39  H    9.553000   1.774120   1.770367   0.000000
    40  H    9.915294   3.530722   3.406645   2.330515   0.000000
    41  C    4.026976   4.315386   5.765930   5.899507   6.689458
    42  H    4.469280   4.606495   6.203417   6.023173   6.667876
    43  H    4.457423   4.363473   5.818442   6.050767   7.186268
    44  C    6.041317   5.250341   5.383064   5.970698   5.403744
    45  H    4.961448   5.201156   5.633099   6.192864   5.886002
    46  H    6.371594   6.186873   6.313705   6.763169   5.870778
    47  H    6.369639   5.544128   5.409808   6.290419   5.912676
    48  H    4.379133   4.720430   5.586328   6.460726   7.648704
    49  C    5.204693   3.083906   3.908229   4.663663   5.531486
    50  H    5.350625   3.169678   4.438825   4.387880   4.663680
                   41         42         43         44         45
    41  C    0.000000
    42  H    1.095988   0.000000
    43  H    1.099856   1.779181   0.000000
    44  C    5.040794   5.560948   5.847682   0.000000
    45  H    4.157781   4.719503   4.996886   1.096447   0.000000
    46  H    5.795250   6.203590   6.687891   1.094329   1.773869
    47  H    5.571190   6.240202   6.244881   1.096797   1.761876
    48  H    2.680449   3.756449   2.310109   5.241485   4.458095
    49  C    2.520410   3.401686   2.797407   3.555275   3.008140
    50  H    2.202558   2.388266   3.031149   3.543774   3.004819
                   46         47         48         49         50
    46  H    0.000000
    47  H    1.771896   0.000000
    48  H    6.193757   5.231544   0.000000
    49  C    4.582937   3.733570   2.201242   0.000000
    50  H    4.285061   4.269333   3.822421   2.117954   0.000000
 Stoichiometry    C23H25NO
 Framework group  C1[X(C23H25NO)]
 Deg. of freedom   144
 Full point group                 C1      NOp   1
 Largest Abelian subgroup         C1      NOp   1
 Largest concise Abelian subgroup C1      NOp   1
                         Standard orientation:                         
 ---------------------------------------------------------------------
 Center     Atomic      Atomic             Coordinates (Angstroms)
 Number     Number       Type             X           Y           Z
 ---------------------------------------------------------------------
      1          6           0        5.115539   -3.624042    0.198135
      2          6           0        4.210892   -2.411743    0.148732
      3          6           0        3.458997   -2.029285    1.268382
      4          6           0        2.592381   -0.927356    1.236287
      5          6           0        2.479251   -0.171405    0.044543
      6          6           0       -0.629450    2.097824   -0.289429
      7          6           0       -0.054715    3.294235   -0.009426
      8          7           0        1.301991    3.410877    0.264421
      9          6           0        1.923829    4.721767    0.459634
     10          6           0        2.072836    2.252752    0.264315
     11          6           0        1.566871    1.017054   -0.007361
     12          6           0       -0.408307   -0.354263   -0.674337
     13          8           0       -2.684268   -0.463310    0.187699
     14          6           0       -4.054550   -0.658810    0.068952
     15          6           0       -4.720784   -0.930179   -1.136301
     16          6           0       -6.111809   -1.107898   -1.130987
     17          6           0       -6.841905   -1.018316    0.056582
     18          6           0       -6.167175   -0.747026    1.257374
     19          6           0       -4.785169   -0.568090    1.267265
     20          6           0        3.222039   -0.549033   -1.098460
     21          6           0        3.099579    0.221105   -2.397169
     22          6           0        4.077895   -1.658444   -1.024987
     23          1           0        5.566909   -3.747251    1.188882
     24          1           0        4.559428   -4.545883   -0.021541
     25          1           0        5.925016   -3.549666   -0.535887
     26          1           0        3.545074   -2.602305    2.188406
     27          1           0       -0.623176    4.215267    0.035706
     28          1           0        1.194415    5.412949    0.889592
     29          1           0        2.762140    4.633139    1.155852
     30          1           0        2.294171    5.144687   -0.483627
     31          1           0        3.119705    2.391635    0.507657
     32          1           0       -4.177177   -1.005599   -2.069688
     33          1           0       -6.620829   -1.318277   -2.067041
     34          1           0       -7.917898   -1.157865    0.051441
     35          1           0       -6.721862   -0.676092    2.188189
     36          1           0       -4.244355   -0.359366    2.183246
     37          1           0        2.051161    0.313559   -2.703518
     38          1           0        3.496950    1.239796   -2.308440
     39          1           0        3.646704   -0.282030   -3.200527
     40          1           0        4.648815   -1.940869   -1.906183
     41          6           0       -1.836070   -0.547049   -1.038783
     42          1           0       -1.993776   -1.530487   -1.496133
     43          1           0       -2.202799    0.219935   -1.736586
     44          6           0        1.786836   -0.564961    2.466048
     45          1           0        0.712681   -0.558881    2.246163
     46          1           0        1.965134   -1.281718    3.273529
     47          1           0        2.041485    0.434445    2.839283
     48          1           0       -1.701174    2.060863   -0.434296
     49          6           0        0.139239    0.856512   -0.345503
     50          1           0        0.215966   -1.239738   -0.638043
 ---------------------------------------------------------------------
 Rotational constants (GHZ):           0.3064775           0.1100534           0.0924205
 Standard basis: 6-31G (6D, 7F)
 There are   275 symmetry adapted cartesian basis functions of A   symmetry.
 There are   275 symmetry adapted basis functions of A   symmetry.
   275 basis functions,   650 primitive gaussians,   275 cartesian basis functions
    89 alpha electrons       89 beta electrons
       nuclear repulsion energy      2028.4702628386 Hartrees.
 NAtoms=   50 NActive=   50 NUniq=   50 SFac= 1.00D+00 NAtFMM=   60 NAOKFM=F Big=F
 Integral buffers will be    131072 words long.
 Regular integral format.
 Two-electron integral symmetry is turned on.
 One-electron integrals computed using PRISM.
 NBasis=   275 RedAO= T EigKep=  4.28D-04  NBF=   275
 NBsUse=   275 1.00D-06 EigRej= -1.00D+00 NBFU=   275
 ExpMin= 1.61D-01 ExpMax= 5.48D+03 ExpMxC= 8.25D+02 IAcc=3 IRadAn=         5 AccDes= 0.00D+00
 Harris functional with IExCor=  402 and IRadAn=       5 diagonalized for initial guess.
 HarFok:  IExCor=  402 AccDes= 0.00D+00 IRadAn=         5 IDoV= 1 UseB2=F ITyADJ=14
 ICtDFT=  3500011 ScaDFX=  1.000000  1.000000  1.000000  1.000000
 FoFCou: FMM=F IPFlag=           0 FMFlag=      100000 FMFlg1=           0
         NFxFlg=           0 DoJE=T BraDBF=F KetDBF=T FulRan=T
         wScrn=  0.000000 ICntrl=       500 IOpCl=  0 I1Cent=   200000004 NGrid=           0
         NMat0=    1 NMatS0=      1 NMatT0=    0 NMatD0=    1 NMtDS0=    0 NMtDT0=    0
 Petite list used in FoFCou.
 Requested convergence on RMS density matrix=1.00D-08 within 128 cycles.
 Requested convergence on MAX density matrix=1.00D-06.
 Requested convergence on             energy=1.00D-06.
 No special actions if energy rises.
 Integral accuracy reduced to 1.0D-05 until final iterations.
 Initial convergence to 1.0D-05 achieved.  Increase integral accuracy.
 SCF Done:  E(RB3LYP) =  -1021.20216542     A.U. after   16 cycles
            NFock= 16  Conv=0.10D-07     -V/T= 2.0057
 DoSCS=F DFT=T ScalE2(SS,OS)=  1.000000  1.000000
 ExpMin= 1.61D-01 ExpMax= 5.48D+03 ExpMxC= 8.25D+02 IAcc=3 IRadAn=         5 AccDes= 0.00D+00
 HarFok:  IExCor=  205 AccDes= 0.00D+00 IRadAn=         5 IDoV=-2 UseB2=F ITyADJ=14
 ICtDFT= 12500011 ScaDFX=  1.000000  1.000000  1.000000  1.000000
 GSVD:  LWork=        -825 too small for GESVD, short by        3500 words or        3500 for optimal perf.
 Range of M.O.s used for correlation:    26   275
 NBasis=   275 NAE=    89 NBE=    89 NFC=    25 NFV=     0
 NROrb=    250 NOA=    64 NOB=    64 NVA=   186 NVB=   186

 **** Warning!!: The largest alpha MO coefficient is  0.14015025D+02

 Keep R1, R2, and R3 ints in memory in canonical form, NReq=2302352895.
 Orbital symmetries:
       Occupied  (A) (A) (A) (A) (A) (A) (A) (A) (A) (A) (A) (A)
                 (A) (A) (A) (A) (A) (A) (A) (A) (A) (A) (A) (A)
                 (A) (A) (A) (A) (A) (A) (A) (A) (A) (A) (A) (A)
                 (A) (A) (A) (A) (A) (A) (A) (A) (A) (A) (A) (A)
                 (A) (A) (A) (A) (A) (A) (A) (A) (A) (A) (A) (A)
                 (A) (A) (A) (A) (A) (A) (A) (A) (A) (A) (A) (A)
                 (A) (A) (A) (A) (A) (A) (A) (A) (A) (A) (A) (A)
                 (A) (A) (A) (A) (A)
       Virtual   (A) (A) (A) (A) (A) (A) (A) (A) (A) (A) (A) (A)
                 (A) (A) (A) (A) (A) (A) (A) (A) (A) (A) (A) (A)
                 (A) (A) (A) (A) (A) (A) (A) (A) (A) (A) (A) (A)
                 (A) (A) (A) (A) (A) (A) (A) (A) (A) (A) (A) (A)
                 (A) (A) (A) (A) (A) (A) (A) (A) (A) (A) (A) (A)
                 (A) (A) (A) (A) (A) (A) (A) (A) (A) (A) (A) (A)
                 (A) (A) (A) (A) (A) (A) (A) (A) (A) (A) (A) (A)
                 (A) (A) (A) (A) (A) (A) (A) (A) (A) (A) (A) (A)
                 (A) (A) (A) (A) (A) (A) (A) (A) (A) (A) (A) (A)
                 (A) (A) (A) (A) (A) (A) (A) (A) (A) (A) (A) (A)
                 (A) (A) (A) (A) (A) (A) (A) (A) (A) (A) (A) (A)
                 (A) (A) (A) (A) (A) (A) (A) (A) (A) (A) (A) (A)
                 (A) (A) (A) (A) (A) (A) (A) (A) (A) (A) (A) (A)
                 (A) (A) (A) (A) (A) (A) (A) (A) (A) (A) (A) (A)
                 (A) (A) (A) (A) (A) (A) (A) (A) (A) (A) (A) (A)
                 (A) (A) (A) (A) (A) (A)
    24 initial guesses have been made.
 Convergence on wavefunction:    0.001000000000000
 Iteration     1 Dimension    24 NMult     0 NNew     24
 CISAX will form    24 AO SS matrices at one time.
 New state      1 was old state      2
 New state      2 was old state      4
 New state      3 was old state      5
 New state      4 was old state      6
 New state      5 was old state      3
 New state      6 was old state     10
 New state      7 was old state      9
 New state      8 was old state     20
 New state      9 was old state      7
 New state     10 was old state      8
 New state     11 was old state     12
 New state     12 was old state     11
 Vector   6 SDiff=8.88D+00 TDiff=8.90D+00 assumed to be singlet.
 Vector  12 SDiff=8.89D+00 TDiff=8.83D+00 assumed to be triplet.
 Iteration     2 Dimension    36 NMult    24 NNew     12
 New state      3 was old state      5
 New state      5 was old state      3
 New state      6 was old state      7
 Iteration     3 Dimension    48 NMult    36 NNew     12
 Iteration     4 Dimension    60 NMult    48 NNew     12
 Iteration     5 Dimension    72 NMult    60 NNew     12
 New state      3 was old state      4
 New state      4 was old state      3
 Iteration     6 Dimension    80 NMult    72 NNew      8
 Iteration     7 Dimension    84 NMult    80 NNew      4
 Iteration     8 Dimension    88 NMult    84 NNew      4
 ***********************************************************************
 Excited states from <AA,BB:AA,BB> singles matrix:
 ***********************************************************************
 
 Ground to excited state transition densities written to RWF  633
 Ground to excited state transition electric dipole moments (Au):
       state          X           Y           Z        Dip. S.      Osc.
         1         0.0000     -0.0000     -0.0000      0.0000      0.0000
         2        -0.0000      0.0000      0.0000      0.0000      0.0000
         3        -0.0000     -0.0000      0.0000      0.0000      0.0000
         4        -0.3429      0.2695     -0.0413      0.1919      0.0173
         5         0.0187     -0.0421      0.0127      0.0023      0.0002
         6         0.1117     -0.1047     -0.0152      0.0237      0.0025
 Ground to excited state transition velocity dipole moments (Au):
       state          X           Y           Z        Dip. S.      Osc.
         1         0.0000      0.0000      0.0000      0.0000      0.0000
         2         0.0000     -0.0000     -0.0000      0.0000      0.0000
         3        -0.0000     -0.0000     -0.0000      0.0000      0.0000
         4         0.0428     -0.0333      0.0060      0.0030      0.0147
         5         0.0005      0.0056     -0.0096      0.0001      0.0006
         6        -0.0010      0.0067      0.0054      0.0001      0.0003
 Ground to excited state transition magnetic dipole moments (Au):
       state          X           Y           Z
         1        -0.0000      0.0000      0.0000
         2         0.0000      0.0000     -0.0000
         3        -0.0000      0.0000      0.0000
         4         0.2702      0.1948     -1.3937
         5        -0.0498      0.0613     -0.1973
         6         0.0094     -0.0062     -0.0261
 Ground to excited state transition velocity quadrupole moments (Au):
       state          XX          YY          ZZ          XY          XZ          YZ
         1         0.0000     -0.0000     -0.0000      0.0000      0.0000     -0.0000
         2        -0.0000     -0.0000      0.0000      0.0000     -0.0000      0.0000
         3         0.0000     -0.0000      0.0000      0.0000     -0.0000     -0.0000
         4         0.1046      0.0228      0.0482     -0.1284     -0.0411     -0.0061
         5        -0.0074      0.0261     -0.0073      0.0504     -0.0358     -0.0119
         6         0.0760      0.0301     -0.0381      0.0370      0.0419      0.0068
 <0|del|b> * <b|rxdel|0> + <0|del|b> * <b|delr+rdel|0>
 Rotatory Strengths (R) in cgs (10**-40 erg-esu-cm/Gauss)
       state          XX          YY          ZZ    R(velocity)    E-M Angle
         1        -0.0000     -0.0000      0.0000      0.0000       90.00
         2        -0.0000      0.0000     -0.0000      0.0000       90.00
         3        -0.0000      0.0000     -0.0000     -0.0000       90.00
         4       -44.6898      9.6270     17.6176     -5.8150       92.44
         5         4.7236      5.6810      0.2967      3.5671       20.57
         6        -0.5963     -0.8005      0.5351     -0.2872      140.94
 1/2[<0|r|b>*<b|rxdel|0> + (<0|rxdel|b>*<b|r|0>)*]
 Rotatory Strengths (R) in cgs (10**-40 erg-esu-cm/Gauss)
       state          XX          YY          ZZ     R(length)
         1         0.0000      0.0000      0.0000      0.0000
         2         0.0000     -0.0000      0.0000      0.0000
         3        -0.0000      0.0000     -0.0000     -0.0000
         4        65.5215    -37.1153    -40.7453     -4.1130
         5         0.6604      1.8276      1.7761      1.4214
         6        -0.7451     -0.4572     -0.2809     -0.4944
  1/2[<0|del|b>*<b|r|0> + (<0|r|b>*<b|del|0>)*] (Au)
       state          X           Y           Z        Dip. S.   Osc.(frdel)
         1         0.0000     -0.0000     -0.0000      0.0000      0.0000
         2        -0.0000     -0.0000     -0.0000      0.0000      0.0000
         3         0.0000      0.0000     -0.0000      0.0000      0.0000
         4        -0.0147     -0.0090     -0.0002      0.0239      0.0159
         5         0.0000     -0.0002     -0.0001      0.0003      0.0002
         6        -0.0001     -0.0007     -0.0001      0.0009      0.0006

 Excitation energies and oscillator strengths:
 
 Excited State   1:      Triplet-A      2.3614 eV  525.05 nm  f=0.0000  <S**2>=2.000
      89 -> 90         0.70212
      89 <- 90         0.12126
 This state for optimization and/or second-order correction.
 Total Energy, E(TD-HF/TD-DFT) =  -1021.11538701    
 Copying the excited state density for this state as the 1-particle RhoCI density.
 
 Excited State   2:      Triplet-A      2.8109 eV  441.09 nm  f=0.0000  <S**2>=2.000
      84 -> 90        -0.11205
      89 -> 91         0.67741
      89 -> 92         0.12772
 
 Excited State   3:      Triplet-A      3.6532 eV  339.38 nm  f=0.0000  <S**2>=2.000
      86 -> 94        -0.43005
      87 -> 91        -0.13739
      87 -> 92         0.53001
 
 Excited State   4:      Singlet-A      3.6703 eV  337.80 nm  f=0.0173  <S**2>=0.000
      89 -> 91         0.70013
 
 Excited State   5:      Singlet-A      3.9731 eV  312.06 nm  f=0.0002  <S**2>=0.000
      89 -> 92         0.70277
 
 Excited State   6:      Singlet-A      4.2614 eV  290.95 nm  f=0.0025  <S**2>=0.000
      89 -> 94         0.70608
 SavETr:  write IOETrn=   770 NScale= 10 NData=  16 NLR=1 NState=    6 LETran=     118.

 **********************************************************************

            Population analysis using the SCF Density.

 **********************************************************************

 Orbital symmetries:
       Occupied  (A) (A) (A) (A) (A) (A) (A) (A) (A) (A) (A) (A)
                 (A) (A) (A) (A) (A) (A) (A) (A) (A) (A) (A) (A)
                 (A) (A) (A) (A) (A) (A) (A) (A) (A) (A) (A) (A)
                 (A) (A) (A) (A) (A) (A) (A) (A) (A) (A) (A) (A)
                 (A) (A) (A) (A) (A) (A) (A) (A) (A) (A) (A) (A)
                 (A) (A) (A) (A) (A) (A) (A) (A) (A) (A) (A) (A)
                 (A) (A) (A) (A) (A) (A) (A) (A) (A) (A) (A) (A)
                 (A) (A) (A) (A) (A)
       Virtual   (A) (A) (A) (A) (A) (A) (A) (A) (A) (A) (A) (A)
                 (A) (A) (A) (A) (A) (A) (A) (A) (A) (A) (A) (A)
                 (A) (A) (A) (A) (A) (A) (A) (A) (A) (A) (A) (A)
                 (A) (A) (A) (A) (A) (A) (A) (A) (A) (A) (A) (A)
                 (A) (A) (A) (A) (A) (A) (A) (A) (A) (A) (A) (A)
                 (A) (A) (A) (A) (A) (A) (A) (A) (A) (A) (A) (A)
                 (A) (A) (A) (A) (A) (A) (A) (A) (A) (A) (A) (A)
                 (A) (A) (A) (A) (A) (A) (A) (A) (A) (A) (A) (A)
                 (A) (A) (A) (A) (A) (A) (A) (A) (A) (A) (A) (A)
                 (A) (A) (A) (A) (A) (A) (A) (A) (A) (A) (A) (A)
                 (A) (A) (A) (A) (A) (A) (A) (A) (A) (A) (A) (A)
                 (A) (A) (A) (A) (A) (A) (A) (A) (A) (A) (A) (A)
                 (A) (A) (A) (A) (A) (A) (A) (A) (A) (A) (A) (A)
                 (A) (A) (A) (A) (A) (A) (A) (A) (A) (A) (A) (A)
                 (A) (A) (A) (A) (A) (A) (A) (A) (A) (A) (A) (A)
                 (A) (A) (A) (A) (A) (A)
 The electronic state is 1-A.
 Alpha  occ. eigenvalues --  -19.14576 -14.38800 -10.23753 -10.23048 -10.22932
 Alpha  occ. eigenvalues --  -10.22714 -10.22132 -10.19049 -10.19026 -10.18735
 Alpha  occ. eigenvalues --  -10.18645 -10.18580 -10.18147 -10.17914 -10.17628
 Alpha  occ. eigenvalues --  -10.17498 -10.17206 -10.17191 -10.16940 -10.16873
 Alpha  occ. eigenvalues --  -10.16794 -10.16788 -10.16776 -10.16301 -10.14691
 Alpha  occ. eigenvalues --   -1.02646  -0.98366  -0.86039  -0.83802  -0.82548
 Alpha  occ. eigenvalues --   -0.78907  -0.77239  -0.76355  -0.76126  -0.73609
 Alpha  occ. eigenvalues --   -0.72896  -0.70337  -0.69374  -0.68026  -0.67092
 Alpha  occ. eigenvalues --   -0.65350  -0.62817  -0.59974  -0.58226  -0.56710
 Alpha  occ. eigenvalues --   -0.56679  -0.55885  -0.52663  -0.51648  -0.50701
 Alpha  occ. eigenvalues --   -0.48465  -0.47817  -0.47187  -0.47077  -0.46594
 Alpha  occ. eigenvalues --   -0.45393  -0.44813  -0.43399  -0.43098  -0.42316
 Alpha  occ. eigenvalues --   -0.41983  -0.41630  -0.41154  -0.40704  -0.40533
 Alpha  occ. eigenvalues --   -0.40158  -0.39629  -0.39114  -0.39013  -0.38601
 Alpha  occ. eigenvalues --   -0.37948  -0.37554  -0.35873  -0.35707  -0.35235
 Alpha  occ. eigenvalues --   -0.34694  -0.33734  -0.32835  -0.32297  -0.31737
 Alpha  occ. eigenvalues --   -0.30042  -0.29889  -0.28980  -0.26616  -0.23830
 Alpha  occ. eigenvalues --   -0.22773  -0.22448  -0.20215  -0.16494
 Alpha virt. eigenvalues --   -0.00428   0.00045   0.00804   0.01411   0.01631
 Alpha virt. eigenvalues --    0.02825   0.07815   0.10251   0.10722   0.10923
 Alpha virt. eigenvalues --    0.11364   0.11695   0.12758   0.12890   0.13377
 Alpha virt. eigenvalues --    0.13532   0.14033   0.14819   0.14956   0.15362
 Alpha virt. eigenvalues --    0.15658   0.16437   0.16577   0.17312   0.17496
 Alpha virt. eigenvalues --    0.17836   0.18079   0.18539   0.19246   0.19543
 Alpha virt. eigenvalues --    0.19602   0.20304   0.21191   0.21347   0.21626
 Alpha virt. eigenvalues --    0.22701   0.24576   0.24901   0.25725   0.25978
 Alpha virt. eigenvalues --    0.27036   0.27107   0.28262   0.30702   0.31739
 Alpha virt. eigenvalues --    0.33571   0.34869   0.36518   0.36831   0.37481
 Alpha virt. eigenvalues --    0.37507   0.38364   0.39152   0.39296   0.40864
 Alpha virt. eigenvalues --    0.44774   0.46552   0.47572   0.49980   0.50268
 Alpha virt. eigenvalues --    0.51470   0.52014   0.53036   0.53652   0.53822
 Alpha virt. eigenvalues --    0.54364   0.54796   0.55310   0.55839   0.56568
 Alpha virt. eigenvalues --    0.57288   0.57904   0.58532   0.59559   0.59755
 Alpha virt. eigenvalues --    0.60277   0.60432   0.61247   0.62086   0.62225
 Alpha virt. eigenvalues --    0.62487   0.62883   0.63030   0.63819   0.64176
 Alpha virt. eigenvalues --    0.65084   0.65145   0.65621   0.66107   0.66333
 Alpha virt. eigenvalues --    0.67175   0.67503   0.67765   0.68205   0.69716
 Alpha virt. eigenvalues --    0.69834   0.71073   0.72162   0.73396   0.73978
 Alpha virt. eigenvalues --    0.75117   0.76002   0.76135   0.76772   0.77266
 Alpha virt. eigenvalues --    0.78164   0.78981   0.80018   0.80588   0.80679
 Alpha virt. eigenvalues --    0.81468   0.83455   0.84049   0.84474   0.85304
 Alpha virt. eigenvalues --    0.86688   0.86951   0.87111   0.87881   0.88165
 Alpha virt. eigenvalues --    0.88965   0.89751   0.90794   0.92095   0.92713
 Alpha virt. eigenvalues --    0.93059   0.93435   0.94172   0.94470   0.94868
 Alpha virt. eigenvalues --    0.95650   0.95773   0.97198   0.97256   0.98239
 Alpha virt. eigenvalues --    0.98308   0.98417   0.98950   0.99299   0.99785
 Alpha virt. eigenvalues --    1.00114   1.01347   1.03781   1.04627   1.05279
 Alpha virt. eigenvalues --    1.06160   1.08440   1.08571   1.10826   1.12018
 Alpha virt. eigenvalues --    1.13071   1.15022   1.15290   1.15990   1.18204
 Alpha virt. eigenvalues --    1.19466   1.21128   1.21900   1.22975   1.24205
 Alpha virt. eigenvalues --    1.25215   1.25533   1.27020   1.28756   1.30040
 Alpha virt. eigenvalues --    1.31046   1.34053   1.38027   1.41060   1.42530
 Alpha virt. eigenvalues --    1.43097   1.44309   1.46359   1.49138   1.49736
 Alpha virt. eigenvalues --    1.53870   1.56339   1.60224   1.61786   1.63837
 Alpha virt. eigenvalues --    1.69793   1.73348   1.88264   1.92236   1.96144
 Alpha virt. eigenvalues --    2.13532
          Condensed to atoms (all electrons):
               1          2          3          4          5          6
     1  C    5.167898   0.304434  -0.045225   0.005547   0.001040   0.000000
     2  C    0.304434   4.798410   0.517790  -0.042551  -0.029702   0.000000
     3  C   -0.045225   0.517790   5.073301   0.500785  -0.043063   0.000000
     4  C    0.005547  -0.042551   0.500785   4.867770   0.493504   0.000040
     5  C    0.001040  -0.029702  -0.043063   0.493504   5.102999   0.010722
     6  C    0.000000   0.000000   0.000000   0.000040   0.010722   5.104855
     7  C    0.000000   0.000000   0.000000   0.000023  -0.000349   0.555627
     8  N    0.000000  -0.000000   0.000001   0.000100   0.004048  -0.039923
     9  C   -0.000000   0.000000  -0.000000  -0.000000  -0.000084   0.003150
    10  C   -0.000000   0.000026   0.000052  -0.003905  -0.051830  -0.045716
    11  C    0.000003   0.000027   0.008905  -0.067288   0.328981  -0.009487
    12  C   -0.000000  -0.000018  -0.000121  -0.000179  -0.021621  -0.096451
    13  O   -0.000000  -0.000000   0.000000  -0.000000  -0.000005  -0.000857
    14  C    0.000000  -0.000000  -0.000000   0.000000  -0.000000  -0.000251
    15  C   -0.000000  -0.000000   0.000000   0.000000   0.000000   0.000001
    16  C   -0.000000  -0.000000  -0.000000   0.000000   0.000000  -0.000000
    17  C   -0.000000  -0.000000   0.000000   0.000000  -0.000000  -0.000000
    18  C    0.000000   0.000000  -0.000000   0.000000   0.000000  -0.000000
    19  C    0.000000   0.000000  -0.000000  -0.000000   0.000000   0.000014
    20  C    0.005841  -0.044357  -0.048769  -0.037827   0.496309  -0.000029
    21  C   -0.000223   0.006296   0.000733   0.006095  -0.054634   0.000014
    22  C   -0.041971   0.523769  -0.050801  -0.048722  -0.042320   0.000000
    23  H    0.366151  -0.033827  -0.002081   0.000291  -0.000003  -0.000000
    24  H    0.366035  -0.031848  -0.002546  -0.000125   0.000026   0.000000
    25  H    0.365926  -0.034356   0.002648  -0.000195  -0.000006  -0.000000
    26  H   -0.005952  -0.043027   0.343993  -0.031947   0.004639  -0.000000
    27  H   -0.000000  -0.000000   0.000000   0.000000   0.000001  -0.016620
    28  H    0.000000   0.000000   0.000000  -0.000000   0.000002   0.000613
    29  H   -0.000000   0.000000   0.000000  -0.000004   0.000003  -0.000181
    30  H    0.000000  -0.000000  -0.000000   0.000000   0.000001  -0.000016
    31  H   -0.000000  -0.000009  -0.000057   0.000906   0.002631   0.000466
    32  H   -0.000000  -0.000000   0.000000   0.000000  -0.000000   0.000002
    33  H   -0.000000  -0.000000   0.000000  -0.000000   0.000000   0.000000
    34  H    0.000000   0.000000  -0.000000   0.000000  -0.000000  -0.000000
    35  H   -0.000000   0.000000   0.000000  -0.000000  -0.000000   0.000000
    36  H   -0.000000  -0.000000   0.000000   0.000000  -0.000000   0.000006
    37  H    0.000002  -0.000187   0.000026  -0.000071  -0.006256  -0.000345
    38  H    0.000003  -0.000237   0.000013   0.000025  -0.004036   0.000007
    39  H   -0.000003   0.000416  -0.000005  -0.000155   0.004103   0.000001
    40  H   -0.006529  -0.041148   0.004833   0.000862   0.004568  -0.000000
    41  C    0.000000  -0.000000  -0.000001   0.000029   0.000519  -0.010053
    42  H    0.000000  -0.000000  -0.000000   0.000000   0.000003   0.000360
    43  H   -0.000000   0.000000  -0.000000   0.000001  -0.000031   0.004277
    44  C   -0.000215   0.006130  -0.043900   0.316598  -0.054456   0.000027
    45  H    0.000002  -0.000175   0.000373  -0.027850  -0.006085  -0.000415
    46  H   -0.000003   0.000414  -0.002470  -0.034986   0.004286   0.000001
    47  H    0.000003  -0.000239   0.000235  -0.031100  -0.004821   0.000008
    48  H   -0.000000  -0.000000  -0.000000  -0.000001  -0.000126   0.355081
    49  C    0.000000   0.000033   0.000004  -0.002054  -0.036379   0.380404
    50  H   -0.000001   0.000047   0.000008   0.002325   0.011681   0.005777
               7          8          9         10         11         12
     1  C    0.000000   0.000000  -0.000000  -0.000000   0.000003  -0.000000
     2  C    0.000000  -0.000000   0.000000   0.000026   0.000027  -0.000018
     3  C    0.000000   0.000001  -0.000000   0.000052   0.008905  -0.000121
     4  C    0.000023   0.000100  -0.000000  -0.003905  -0.067288  -0.000179
     5  C   -0.000349   0.004048  -0.000084  -0.051830   0.328981  -0.021621
     6  C    0.555627  -0.039923   0.003150  -0.045716  -0.009487  -0.096451
     7  C    4.845099   0.257113  -0.030577  -0.041313  -0.026046   0.009711
     8  N    0.257113   7.230449   0.242291   0.211591  -0.031399   0.000237
     9  C   -0.030577   0.242291   4.927640  -0.029268   0.002860   0.000009
    10  C   -0.041313   0.211591  -0.029268   4.976301   0.521455   0.011541
    11  C   -0.026046  -0.031399   0.002860   0.521455   5.150914  -0.058142
    12  C    0.009711   0.000237   0.000009   0.011541  -0.058142   5.295604
    13  O    0.000026   0.000000   0.000000  -0.000002   0.000031  -0.066180
    14  C   -0.000004   0.000000  -0.000000  -0.000000   0.000001   0.004559
    15  C   -0.000000  -0.000000   0.000000   0.000000  -0.000000   0.000293
    16  C   -0.000000  -0.000000  -0.000000  -0.000000   0.000000  -0.000003
    17  C    0.000000   0.000000   0.000000  -0.000000  -0.000000   0.000000
    18  C    0.000000   0.000000   0.000000  -0.000000  -0.000000   0.000004
    19  C   -0.000000  -0.000000  -0.000000   0.000000  -0.000000  -0.000139
    20  C    0.000013   0.000170  -0.000004  -0.005271  -0.068143   0.000831
    21  C    0.000045  -0.000203  -0.000000   0.001316  -0.008489  -0.002261
    22  C    0.000000   0.000001  -0.000000   0.000070   0.008895  -0.000067
    23  H   -0.000000   0.000000  -0.000000  -0.000000  -0.000000  -0.000000
    24  H    0.000000  -0.000000   0.000000   0.000000   0.000000   0.000000
    25  H   -0.000000   0.000000  -0.000000  -0.000000  -0.000000  -0.000000
    26  H   -0.000000  -0.000000   0.000000  -0.000003  -0.000230   0.000000
    27  H    0.363114  -0.057905  -0.002913   0.002948   0.000536  -0.000196
    28  H   -0.000361  -0.041372   0.379577   0.002040  -0.000174  -0.000000
    29  H    0.002085  -0.042537   0.379276  -0.000167   0.000598  -0.000000
    30  H    0.000612  -0.052617   0.375902   0.000651  -0.000025  -0.000001
    31  H    0.002581  -0.054065  -0.002705   0.360676  -0.023489  -0.000178
    32  H    0.000000  -0.000000   0.000000   0.000000  -0.000000  -0.000025
    33  H    0.000000  -0.000000   0.000000  -0.000000  -0.000000  -0.000000
    34  H   -0.000000   0.000000  -0.000000  -0.000000  -0.000000  -0.000000
    35  H    0.000000  -0.000000   0.000000   0.000000   0.000000  -0.000000
    36  H    0.000000  -0.000000   0.000000   0.000000  -0.000000  -0.000041
    37  H   -0.000046   0.000098  -0.000001  -0.000821  -0.000466   0.004851
    38  H   -0.000001  -0.000140   0.000006   0.001923   0.002176  -0.000023
    39  H   -0.000000  -0.000001   0.000000   0.000095   0.000616  -0.000024
    40  H   -0.000000  -0.000000   0.000000  -0.000004  -0.000231   0.000000
    41  C   -0.000056  -0.000000  -0.000000  -0.000344   0.006192   0.326350
    42  H   -0.000001   0.000000  -0.000000   0.000002  -0.000158  -0.027056
    43  H   -0.000004  -0.000009  -0.000000   0.000024   0.000018  -0.041473
    44  C    0.000041  -0.000158   0.000001   0.000240  -0.009103  -0.002673
    45  H   -0.000039   0.000067  -0.000000  -0.000553  -0.000859   0.005606
    46  H   -0.000001  -0.000000   0.000000   0.000062   0.000531  -0.000006
    47  H    0.000012  -0.000143  -0.000003   0.002299   0.003199  -0.000059
    48  H   -0.041475   0.004362  -0.000137   0.000295   0.004789  -0.015146
    49  C   -0.026943  -0.029105   0.000344  -0.027662   0.362330   0.535376
    50  H   -0.000265  -0.000004   0.000000   0.000259  -0.016104   0.357716
              13         14         15         16         17         18
     1  C   -0.000000   0.000000  -0.000000  -0.000000  -0.000000   0.000000
     2  C   -0.000000  -0.000000  -0.000000  -0.000000  -0.000000   0.000000
     3  C    0.000000  -0.000000   0.000000  -0.000000   0.000000  -0.000000
     4  C   -0.000000   0.000000   0.000000   0.000000   0.000000   0.000000
     5  C   -0.000005  -0.000000   0.000000   0.000000  -0.000000   0.000000
     6  C   -0.000857  -0.000251   0.000001  -0.000000  -0.000000  -0.000000
     7  C    0.000026  -0.000004  -0.000000  -0.000000   0.000000   0.000000
     8  N    0.000000   0.000000  -0.000000  -0.000000   0.000000   0.000000
     9  C    0.000000  -0.000000   0.000000  -0.000000   0.000000   0.000000
    10  C   -0.000002  -0.000000   0.000000  -0.000000  -0.000000  -0.000000
    11  C    0.000031   0.000001  -0.000000   0.000000  -0.000000  -0.000000
    12  C   -0.066180   0.004559   0.000293  -0.000003   0.000000   0.000004
    13  O    8.463504   0.230525  -0.074803   0.004235   0.000091   0.003310
    14  C    0.230525   4.755112   0.386569   0.000241  -0.035092  -0.031879
    15  C   -0.074803   0.386569   5.205007   0.459874  -0.053917  -0.033565
    16  C    0.004235   0.000241   0.459874   4.925153   0.542749  -0.045895
    17  C    0.000091  -0.035092  -0.053917   0.542749   4.904916   0.529844
    18  C    0.003310  -0.031879  -0.033565  -0.045895   0.529844   4.899426
    19  C   -0.063002   0.513810  -0.094517  -0.031129  -0.056165   0.528561
    20  C    0.000000  -0.000000   0.000000  -0.000000  -0.000000  -0.000000
    21  C   -0.000000   0.000000  -0.000000   0.000000   0.000000   0.000000
    22  C   -0.000000   0.000000  -0.000000  -0.000000   0.000000   0.000000
    23  H    0.000000  -0.000000  -0.000000  -0.000000   0.000000  -0.000000
    24  H   -0.000000  -0.000000   0.000000   0.000000  -0.000000   0.000000
    25  H   -0.000000   0.000000  -0.000000  -0.000000   0.000000   0.000000
    26  H   -0.000000   0.000000   0.000000  -0.000000   0.000000   0.000000
    27  H   -0.000001  -0.000000  -0.000000   0.000000  -0.000000  -0.000000
    28  H    0.000000  -0.000000   0.000000  -0.000000  -0.000000  -0.000000
    29  H    0.000000  -0.000000  -0.000000  -0.000000  -0.000000  -0.000000
    30  H   -0.000000   0.000000  -0.000000   0.000000   0.000000   0.000000
    31  H   -0.000000   0.000000   0.000000   0.000000  -0.000000   0.000000
    32  H   -0.008747  -0.054364   0.361731  -0.034367   0.004637   0.000475
    33  H   -0.000049   0.002936  -0.032628   0.350980  -0.034616   0.004462
    34  H    0.000001   0.000563   0.004956  -0.036053   0.354425  -0.036315
    35  H   -0.000063   0.004526   0.000709   0.004596  -0.037422   0.351297
    36  H    0.000557  -0.030402   0.007828  -0.000160   0.004741  -0.037513
    37  H    0.000001  -0.000000   0.000000  -0.000000  -0.000000  -0.000000
    38  H   -0.000000   0.000000  -0.000000   0.000000   0.000000  -0.000000
    39  H   -0.000000   0.000000  -0.000000   0.000000  -0.000000   0.000000
    40  H    0.000000  -0.000000  -0.000000  -0.000000   0.000000  -0.000000
    41  C    0.161152  -0.023359  -0.009842   0.000543   0.000004  -0.000113
    42  H   -0.042409  -0.004319   0.005079  -0.000140  -0.000005   0.000001
    43  H   -0.053968  -0.003569   0.005449  -0.000125  -0.000005   0.000004
    44  C   -0.000011  -0.000001  -0.000000   0.000000  -0.000000  -0.000000
    45  H    0.000127   0.000013   0.000000  -0.000000   0.000000   0.000000
    46  H    0.000000  -0.000000   0.000000   0.000000  -0.000000  -0.000000
    47  H    0.000000  -0.000000   0.000000   0.000000  -0.000000  -0.000000
    48  H    0.006710   0.000564  -0.000026  -0.000001   0.000000  -0.000000
    49  C    0.000170   0.000280  -0.000021   0.000000   0.000000  -0.000000
    50  H    0.001657  -0.000053  -0.000001   0.000000   0.000000  -0.000000
              19         20         21         22         23         24
     1  C    0.000000   0.005841  -0.000223  -0.041971   0.366151   0.366035
     2  C    0.000000  -0.044357   0.006296   0.523769  -0.033827  -0.031848
     3  C   -0.000000  -0.048769   0.000733  -0.050801  -0.002081  -0.002546
     4  C   -0.000000  -0.037827   0.006095  -0.048722   0.000291  -0.000125
     5  C    0.000000   0.496309  -0.054634  -0.042320  -0.000003   0.000026
     6  C    0.000014  -0.000029   0.000014   0.000000  -0.000000   0.000000
     7  C   -0.000000   0.000013   0.000045   0.000000  -0.000000   0.000000
     8  N   -0.000000   0.000170  -0.000203   0.000001   0.000000  -0.000000
     9  C   -0.000000  -0.000004  -0.000000  -0.000000  -0.000000   0.000000
    10  C    0.000000  -0.005271   0.001316   0.000070  -0.000000   0.000000
    11  C   -0.000000  -0.068143  -0.008489   0.008895  -0.000000   0.000000
    12  C   -0.000139   0.000831  -0.002261  -0.000067  -0.000000   0.000000
    13  O   -0.063002   0.000000  -0.000000  -0.000000   0.000000  -0.000000
    14  C    0.513810  -0.000000   0.000000   0.000000  -0.000000  -0.000000
    15  C   -0.094517   0.000000  -0.000000  -0.000000  -0.000000   0.000000
    16  C   -0.031129  -0.000000   0.000000  -0.000000  -0.000000   0.000000
    17  C   -0.056165  -0.000000   0.000000   0.000000   0.000000  -0.000000
    18  C    0.528561  -0.000000   0.000000   0.000000  -0.000000   0.000000
    19  C    5.010013   0.000000  -0.000000  -0.000000  -0.000000   0.000000
    20  C    0.000000   4.877048   0.313545   0.498031  -0.000194  -0.000172
    21  C   -0.000000   0.313545   5.176568  -0.043980   0.000002   0.000003
    22  C   -0.000000   0.498031  -0.043980   5.068035   0.002173  -0.002186
    23  H   -0.000000  -0.000194   0.000002   0.002173   0.581374  -0.032555
    24  H    0.000000  -0.000172   0.000003  -0.002186  -0.032555   0.578187
    25  H   -0.000000   0.000344  -0.000001  -0.001869  -0.029532  -0.031746
    26  H   -0.000000   0.000886   0.000010   0.004694   0.003731   0.000551
    27  H    0.000000   0.000000  -0.000000   0.000000   0.000000  -0.000000
    28  H    0.000000   0.000000  -0.000000   0.000000   0.000000  -0.000000
    29  H    0.000000   0.000003  -0.000001  -0.000000  -0.000000   0.000000
    30  H   -0.000000  -0.000002   0.000003   0.000000   0.000000  -0.000000
    31  H    0.000000   0.001142   0.000149  -0.000073   0.000000  -0.000000
    32  H    0.003516   0.000000  -0.000000   0.000000  -0.000000   0.000000
    33  H    0.000846   0.000000  -0.000000  -0.000000   0.000000   0.000000
    34  H    0.004442  -0.000000   0.000000   0.000000   0.000000   0.000000
    35  H   -0.033201   0.000000  -0.000000  -0.000000   0.000000  -0.000000
    36  H    0.341926   0.000000  -0.000000   0.000000   0.000000  -0.000000
    37  H    0.000000  -0.028365   0.362619   0.000812  -0.000000  -0.000000
    38  H    0.000000  -0.030776   0.361973  -0.000350  -0.000000   0.000000
    39  H   -0.000000  -0.035074   0.361164  -0.001987   0.000000  -0.000000
    40  H   -0.000000  -0.033090  -0.007184   0.342789   0.000066   0.000392
    41  C    0.004526   0.000055  -0.000028  -0.000002  -0.000000   0.000000
    42  H   -0.000171   0.000002   0.000000   0.000000  -0.000000   0.000000
    43  H   -0.000129  -0.000005   0.000006   0.000000   0.000000  -0.000000
    44  C    0.000000   0.006008  -0.000160   0.000737  -0.000001   0.000002
    45  H   -0.000003  -0.000114   0.000006   0.000025   0.000000  -0.000000
    46  H    0.000000  -0.000163   0.000002  -0.000006   0.000001  -0.000000
    47  H    0.000000   0.000070   0.000001   0.000012  -0.000000   0.000000
    48  H   -0.000078   0.000000  -0.000001  -0.000000   0.000000  -0.000000
    49  C   -0.000021  -0.001403  -0.001705  -0.000004   0.000000  -0.000000
    50  H    0.000004   0.001405  -0.000093  -0.000035  -0.000000   0.000000
              25         26         27         28         29         30
     1  C    0.365926  -0.005952  -0.000000   0.000000  -0.000000   0.000000
     2  C   -0.034356  -0.043027  -0.000000   0.000000   0.000000  -0.000000
     3  C    0.002648   0.343993   0.000000   0.000000   0.000000  -0.000000
     4  C   -0.000195  -0.031947   0.000000  -0.000000  -0.000004   0.000000
     5  C   -0.000006   0.004639   0.000001   0.000002   0.000003   0.000001
     6  C   -0.000000  -0.000000  -0.016620   0.000613  -0.000181  -0.000016
     7  C   -0.000000  -0.000000   0.363114  -0.000361   0.002085   0.000612
     8  N    0.000000  -0.000000  -0.057905  -0.041372  -0.042537  -0.052617
     9  C   -0.000000   0.000000  -0.002913   0.379577   0.379276   0.375902
    10  C   -0.000000  -0.000003   0.002948   0.002040  -0.000167   0.000651
    11  C   -0.000000  -0.000230   0.000536  -0.000174   0.000598  -0.000025
    12  C   -0.000000   0.000000  -0.000196  -0.000000  -0.000000  -0.000001
    13  O   -0.000000  -0.000000  -0.000001   0.000000   0.000000  -0.000000
    14  C    0.000000   0.000000  -0.000000  -0.000000  -0.000000   0.000000
    15  C   -0.000000   0.000000  -0.000000   0.000000  -0.000000  -0.000000
    16  C   -0.000000  -0.000000   0.000000  -0.000000  -0.000000   0.000000
    17  C    0.000000   0.000000  -0.000000  -0.000000  -0.000000   0.000000
    18  C    0.000000   0.000000  -0.000000  -0.000000  -0.000000   0.000000
    19  C   -0.000000  -0.000000   0.000000   0.000000   0.000000  -0.000000
    20  C    0.000344   0.000886   0.000000   0.000000   0.000003  -0.000002
    21  C   -0.000001   0.000010  -0.000000  -0.000000  -0.000001   0.000003
    22  C   -0.001869   0.004694   0.000000   0.000000  -0.000000   0.000000
    23  H   -0.029532   0.003731   0.000000   0.000000  -0.000000   0.000000
    24  H   -0.031746   0.000551  -0.000000  -0.000000   0.000000  -0.000000
    25  H    0.581939   0.000062   0.000000   0.000000  -0.000000   0.000000
    26  H    0.000062   0.610369  -0.000000  -0.000000  -0.000000   0.000000
    27  H    0.000000  -0.000000   0.559755   0.003348   0.000102   0.000105
    28  H    0.000000  -0.000000   0.003348   0.554933  -0.023875  -0.037757
    29  H   -0.000000  -0.000000   0.000102  -0.023875   0.556574  -0.039152
    30  H    0.000000   0.000000   0.000105  -0.037757  -0.039152   0.585947
    31  H    0.000000   0.000001  -0.000201   0.000099   0.002974   0.000214
    32  H   -0.000000   0.000000  -0.000000   0.000000  -0.000000  -0.000000
    33  H    0.000000  -0.000000   0.000000   0.000000   0.000000  -0.000000
    34  H    0.000000   0.000000  -0.000000  -0.000000  -0.000000   0.000000
    35  H    0.000000  -0.000000   0.000000   0.000000   0.000000  -0.000000
    36  H   -0.000000  -0.000000  -0.000000   0.000000   0.000000  -0.000000
    37  H    0.000000  -0.000000   0.000000   0.000000   0.000000  -0.000002
    38  H   -0.000000  -0.000000  -0.000000   0.000000  -0.000000   0.000004
    39  H    0.000003  -0.000000  -0.000000  -0.000000  -0.000000   0.000000
    40  H    0.004468  -0.000209  -0.000000  -0.000000   0.000000  -0.000000
    41  C   -0.000000  -0.000000   0.000010   0.000000   0.000000  -0.000000
    42  H   -0.000000   0.000000  -0.000000  -0.000000  -0.000000   0.000000
    43  H    0.000000   0.000000   0.000006  -0.000000  -0.000000   0.000000
    44  C    0.000002  -0.007160   0.000000   0.000000   0.000000  -0.000000
    45  H   -0.000000   0.000167   0.000000  -0.000000  -0.000000   0.000000
    46  H    0.000000   0.006116  -0.000000   0.000000   0.000000  -0.000000
    47  H   -0.000000   0.000167   0.000000  -0.000000   0.000005  -0.000000
    48  H    0.000000   0.000000  -0.003556  -0.000001   0.000003   0.000001
    49  C    0.000000   0.000001   0.002989  -0.000018  -0.000017   0.000021
    50  H   -0.000000  -0.000003   0.000002  -0.000000   0.000000   0.000000
              31         32         33         34         35         36
     1  C   -0.000000  -0.000000  -0.000000   0.000000  -0.000000  -0.000000
     2  C   -0.000009  -0.000000  -0.000000   0.000000   0.000000  -0.000000
     3  C   -0.000057   0.000000   0.000000  -0.000000   0.000000   0.000000
     4  C    0.000906   0.000000  -0.000000   0.000000  -0.000000   0.000000
     5  C    0.002631  -0.000000   0.000000  -0.000000  -0.000000  -0.000000
     6  C    0.000466   0.000002   0.000000  -0.000000   0.000000   0.000006
     7  C    0.002581   0.000000   0.000000  -0.000000   0.000000   0.000000
     8  N   -0.054065  -0.000000  -0.000000   0.000000  -0.000000  -0.000000
     9  C   -0.002705   0.000000   0.000000  -0.000000   0.000000   0.000000
    10  C    0.360676   0.000000  -0.000000  -0.000000   0.000000   0.000000
    11  C   -0.023489  -0.000000  -0.000000  -0.000000   0.000000  -0.000000
    12  C   -0.000178  -0.000025  -0.000000  -0.000000  -0.000000  -0.000041
    13  O   -0.000000  -0.008747  -0.000049   0.000001  -0.000063   0.000557
    14  C    0.000000  -0.054364   0.002936   0.000563   0.004526  -0.030402
    15  C    0.000000   0.361731  -0.032628   0.004956   0.000709   0.007828
    16  C    0.000000  -0.034367   0.350980  -0.036053   0.004596  -0.000160
    17  C   -0.000000   0.004637  -0.034616   0.354425  -0.037422   0.004741
    18  C    0.000000   0.000475   0.004462  -0.036315   0.351297  -0.037513
    19  C    0.000000   0.003516   0.000846   0.004442  -0.033201   0.341926
    20  C    0.001142   0.000000   0.000000  -0.000000   0.000000   0.000000
    21  C    0.000149  -0.000000  -0.000000   0.000000  -0.000000  -0.000000
    22  C   -0.000073   0.000000  -0.000000   0.000000  -0.000000   0.000000
    23  H    0.000000  -0.000000   0.000000   0.000000   0.000000   0.000000
    24  H   -0.000000   0.000000   0.000000   0.000000  -0.000000  -0.000000
    25  H    0.000000  -0.000000   0.000000   0.000000   0.000000  -0.000000
    26  H    0.000001   0.000000  -0.000000   0.000000  -0.000000  -0.000000
    27  H   -0.000201  -0.000000   0.000000  -0.000000   0.000000  -0.000000
    28  H    0.000099   0.000000   0.000000  -0.000000   0.000000   0.000000
    29  H    0.002974  -0.000000   0.000000  -0.000000   0.000000   0.000000
    30  H    0.000214  -0.000000  -0.000000   0.000000  -0.000000  -0.000000
    31  H    0.547571  -0.000000  -0.000000  -0.000000   0.000000  -0.000000
    32  H   -0.000000   0.595113  -0.004652  -0.000163   0.000011  -0.000140
    33  H   -0.000000  -0.004652   0.597994  -0.004428  -0.000196   0.000011
    34  H   -0.000000  -0.000163  -0.004428   0.601355  -0.004460  -0.000148
    35  H    0.000000   0.000011  -0.000196  -0.004460   0.599584  -0.004964
    36  H   -0.000000  -0.000140   0.000011  -0.000148  -0.004964   0.585712
    37  H    0.000024   0.000000   0.000000  -0.000000   0.000000   0.000000
    38  H    0.000229   0.000000  -0.000000   0.000000  -0.000000   0.000000
    39  H    0.000002   0.000000  -0.000000   0.000000  -0.000000  -0.000000
    40  H    0.000001   0.000000   0.000000  -0.000000   0.000000   0.000000
    41  C    0.000001   0.004280  -0.000006  -0.000000   0.000001  -0.000199
    42  H   -0.000000   0.002795  -0.000000   0.000000  -0.000000   0.000025
    43  H    0.000000   0.002580  -0.000001   0.000000  -0.000000   0.000023
    44  C    0.000129  -0.000000  -0.000000  -0.000000   0.000000  -0.000000
    45  H    0.000003   0.000000   0.000000   0.000000  -0.000000   0.000003
    46  H    0.000001   0.000000   0.000000  -0.000000   0.000000  -0.000000
    47  H    0.000111   0.000000   0.000000  -0.000000   0.000000  -0.000000
    48  H    0.000014  -0.000008   0.000000  -0.000000  -0.000000   0.000012
    49  C    0.002705  -0.000010   0.000000   0.000000  -0.000000   0.000003
    50  H   -0.000009   0.000008   0.000000   0.000000   0.000000   0.000001
              37         38         39         40         41         42
     1  C    0.000002   0.000003  -0.000003  -0.006529   0.000000   0.000000
     2  C   -0.000187  -0.000237   0.000416  -0.041148  -0.000000  -0.000000
     3  C    0.000026   0.000013  -0.000005   0.004833  -0.000001  -0.000000
     4  C   -0.000071   0.000025  -0.000155   0.000862   0.000029   0.000000
     5  C   -0.006256  -0.004036   0.004103   0.004568   0.000519   0.000003
     6  C   -0.000345   0.000007   0.000001  -0.000000  -0.010053   0.000360
     7  C   -0.000046  -0.000001  -0.000000  -0.000000  -0.000056  -0.000001
     8  N    0.000098  -0.000140  -0.000001  -0.000000  -0.000000   0.000000
     9  C   -0.000001   0.000006   0.000000   0.000000  -0.000000  -0.000000
    10  C   -0.000821   0.001923   0.000095  -0.000004  -0.000344   0.000002
    11  C   -0.000466   0.002176   0.000616  -0.000231   0.006192  -0.000158
    12  C    0.004851  -0.000023  -0.000024   0.000000   0.326350  -0.027056
    13  O    0.000001  -0.000000  -0.000000   0.000000   0.161152  -0.042409
    14  C   -0.000000   0.000000   0.000000  -0.000000  -0.023359  -0.004319
    15  C    0.000000  -0.000000  -0.000000  -0.000000  -0.009842   0.005079
    16  C   -0.000000   0.000000   0.000000  -0.000000   0.000543  -0.000140
    17  C   -0.000000   0.000000  -0.000000   0.000000   0.000004  -0.000005
    18  C   -0.000000  -0.000000   0.000000  -0.000000  -0.000113   0.000001
    19  C    0.000000   0.000000  -0.000000  -0.000000   0.004526  -0.000171
    20  C   -0.028365  -0.030776  -0.035074  -0.033090   0.000055   0.000002
    21  C    0.362619   0.361973   0.361164  -0.007184  -0.000028   0.000000
    22  C    0.000812  -0.000350  -0.001987   0.342789  -0.000002   0.000000
    23  H   -0.000000  -0.000000   0.000000   0.000066  -0.000000  -0.000000
    24  H   -0.000000   0.000000  -0.000000   0.000392   0.000000   0.000000
    25  H    0.000000  -0.000000   0.000003   0.004468  -0.000000  -0.000000
    26  H   -0.000000  -0.000000  -0.000000  -0.000209  -0.000000   0.000000
    27  H    0.000000  -0.000000  -0.000000  -0.000000   0.000010  -0.000000
    28  H    0.000000   0.000000  -0.000000  -0.000000   0.000000  -0.000000
    29  H    0.000000  -0.000000  -0.000000   0.000000   0.000000  -0.000000
    30  H   -0.000002   0.000004   0.000000  -0.000000  -0.000000   0.000000
    31  H    0.000024   0.000229   0.000002   0.000001   0.000001  -0.000000
    32  H    0.000000   0.000000   0.000000   0.000000   0.004280   0.002795
    33  H    0.000000  -0.000000  -0.000000   0.000000  -0.000006  -0.000000
    34  H   -0.000000   0.000000   0.000000  -0.000000  -0.000000   0.000000
    35  H    0.000000  -0.000000  -0.000000   0.000000   0.000001  -0.000000
    36  H    0.000000   0.000000  -0.000000   0.000000  -0.000199   0.000025
    37  H    0.565535  -0.033742  -0.029543   0.000150   0.000032  -0.000004
    38  H   -0.033742   0.590380  -0.030695   0.000210   0.000000   0.000000
    39  H   -0.029543  -0.030695   0.589318   0.005973  -0.000000  -0.000000
    40  H    0.000150   0.000210   0.005973   0.612462  -0.000000  -0.000000
    41  C    0.000032   0.000000  -0.000000  -0.000000   4.985054   0.352060
    42  H   -0.000004   0.000000  -0.000000  -0.000000   0.352060   0.633862
    43  H   -0.000016  -0.000000   0.000000  -0.000000   0.355239  -0.057660
    44  C    0.000005   0.000002   0.000002   0.000010  -0.000010  -0.000001
    45  H   -0.000005   0.000001   0.000000  -0.000000  -0.000058   0.000000
    46  H    0.000000  -0.000000  -0.000000  -0.000000   0.000000  -0.000000
    47  H    0.000001  -0.000002  -0.000000  -0.000000   0.000000   0.000000
    48  H    0.000001  -0.000000   0.000000   0.000000   0.004675   0.000296
    49  C    0.003865   0.000012   0.000010   0.000001  -0.013742   0.006030
    50  H    0.000007   0.000018  -0.000001  -0.000004  -0.049127  -0.006260
              43         44         45         46         47         48
     1  C   -0.000000  -0.000215   0.000002  -0.000003   0.000003  -0.000000
     2  C    0.000000   0.006130  -0.000175   0.000414  -0.000239  -0.000000
     3  C   -0.000000  -0.043900   0.000373  -0.002470   0.000235  -0.000000
     4  C    0.000001   0.316598  -0.027850  -0.034986  -0.031100  -0.000001
     5  C   -0.000031  -0.054456  -0.006085   0.004286  -0.004821  -0.000126
     6  C    0.004277   0.000027  -0.000415   0.000001   0.000008   0.355081
     7  C   -0.000004   0.000041  -0.000039  -0.000001   0.000012  -0.041475
     8  N   -0.000009  -0.000158   0.000067  -0.000000  -0.000143   0.004362
     9  C   -0.000000   0.000001  -0.000000   0.000000  -0.000003  -0.000137
    10  C    0.000024   0.000240  -0.000553   0.000062   0.002299   0.000295
    11  C    0.000018  -0.009103  -0.000859   0.000531   0.003199   0.004789
    12  C   -0.041473  -0.002673   0.005606  -0.000006  -0.000059  -0.015146
    13  O   -0.053968  -0.000011   0.000127   0.000000   0.000000   0.006710
    14  C   -0.003569  -0.000001   0.000013  -0.000000  -0.000000   0.000564
    15  C    0.005449  -0.000000   0.000000   0.000000   0.000000  -0.000026
    16  C   -0.000125   0.000000  -0.000000   0.000000   0.000000  -0.000001
    17  C   -0.000005  -0.000000   0.000000  -0.000000  -0.000000   0.000000
    18  C    0.000004  -0.000000   0.000000  -0.000000  -0.000000  -0.000000
    19  C   -0.000129   0.000000  -0.000003   0.000000   0.000000  -0.000078
    20  C   -0.000005   0.006008  -0.000114  -0.000163   0.000070   0.000000
    21  C    0.000006  -0.000160   0.000006   0.000002   0.000001  -0.000001
    22  C    0.000000   0.000737   0.000025  -0.000006   0.000012  -0.000000
    23  H    0.000000  -0.000001   0.000000   0.000001  -0.000000   0.000000
    24  H   -0.000000   0.000002  -0.000000  -0.000000   0.000000  -0.000000
    25  H    0.000000   0.000002  -0.000000   0.000000  -0.000000   0.000000
    26  H    0.000000  -0.007160   0.000167   0.006116   0.000167   0.000000
    27  H    0.000006   0.000000   0.000000  -0.000000   0.000000  -0.003556
    28  H   -0.000000   0.000000  -0.000000   0.000000  -0.000000  -0.000001
    29  H   -0.000000   0.000000  -0.000000   0.000000   0.000005   0.000003
    30  H    0.000000  -0.000000   0.000000  -0.000000  -0.000000   0.000001
    31  H    0.000000   0.000129   0.000003   0.000001   0.000111   0.000014
    32  H    0.002580  -0.000000   0.000000   0.000000   0.000000  -0.000008
    33  H   -0.000001  -0.000000   0.000000   0.000000   0.000000   0.000000
    34  H    0.000000  -0.000000   0.000000  -0.000000  -0.000000  -0.000000
    35  H   -0.000000   0.000000  -0.000000   0.000000   0.000000  -0.000000
    36  H    0.000023  -0.000000   0.000003  -0.000000  -0.000000   0.000012
    37  H   -0.000016   0.000005  -0.000005   0.000000   0.000001   0.000001
    38  H   -0.000000   0.000002   0.000001  -0.000000  -0.000002  -0.000000
    39  H    0.000000   0.000002   0.000000  -0.000000  -0.000000   0.000000
    40  H   -0.000000   0.000010  -0.000000  -0.000000  -0.000000   0.000000
    41  C    0.355239  -0.000010  -0.000058   0.000000   0.000000   0.004675
    42  H   -0.057660  -0.000001   0.000000  -0.000000   0.000000   0.000296
    43  H    0.669199  -0.000002   0.000013  -0.000000  -0.000000  -0.001995
    44  C   -0.000002   5.178352   0.364428   0.360768   0.361803  -0.000000
    45  H    0.000013   0.364428   0.545487  -0.028336  -0.032777   0.000002
    46  H   -0.000000   0.360768  -0.028336   0.589775  -0.030556   0.000000
    47  H   -0.000000   0.361803  -0.032777  -0.030556   0.588279  -0.000001
    48  H   -0.001995  -0.000000   0.000002   0.000000  -0.000001   0.560061
    49  C   -0.014465  -0.001575   0.004027   0.000017   0.000001  -0.021488
    50  H    0.004517  -0.000233   0.000088  -0.000002   0.000031   0.000028
              49         50
     1  C    0.000000  -0.000001
     2  C    0.000033   0.000047
     3  C    0.000004   0.000008
     4  C   -0.002054   0.002325
     5  C   -0.036379   0.011681
     6  C    0.380404   0.005777
     7  C   -0.026943  -0.000265
     8  N   -0.029105  -0.000004
     9  C    0.000344   0.000000
    10  C   -0.027662   0.000259
    11  C    0.362330  -0.016104
    12  C    0.535376   0.357716
    13  O    0.000170   0.001657
    14  C    0.000280  -0.000053
    15  C   -0.000021  -0.000001
    16  C    0.000000   0.000000
    17  C    0.000000   0.000000
    18  C   -0.000000  -0.000000
    19  C   -0.000021   0.000004
    20  C   -0.001403   0.001405
    21  C   -0.001705  -0.000093
    22  C   -0.000004  -0.000035
    23  H    0.000000  -0.000000
    24  H   -0.000000   0.000000
    25  H    0.000000  -0.000000
    26  H    0.000001  -0.000003
    27  H    0.002989   0.000002
    28  H   -0.000018  -0.000000
    29  H   -0.000017   0.000000
    30  H    0.000021   0.000000
    31  H    0.002705  -0.000009
    32  H   -0.000010   0.000008
    33  H    0.000000   0.000000
    34  H    0.000000   0.000000
    35  H   -0.000000   0.000000
    36  H    0.000003   0.000001
    37  H    0.003865   0.000007
    38  H    0.000012   0.000018
    39  H    0.000010  -0.000001
    40  H    0.000001  -0.000004
    41  C   -0.013742  -0.049127
    42  H    0.006030  -0.006260
    43  H   -0.014465   0.004517
    44  C   -0.001575  -0.000233
    45  H    0.004027   0.000088
    46  H    0.000017  -0.000002
    47  H    0.000001   0.000031
    48  H   -0.021488   0.000028
    49  C    4.713493  -0.021552
    50  H   -0.021552   0.581188
 Mulliken charges:
               1
     1  C   -0.482766
     2  C    0.143889
     3  C   -0.214661
     4  C    0.134060
     5  C   -0.114259
     6  C   -0.201108
     7  C    0.131378
     8  N   -0.600947
     9  C   -0.245363
    10  C    0.112994
    11  C   -0.083225
    12  C   -0.220608
    13  O   -0.562000
    14  C    0.283594
    15  C   -0.138174
    16  C   -0.140498
    17  C   -0.124188
    18  C   -0.132104
    19  C   -0.129106
    20  C    0.132055
    21  C   -0.471587
    22  C   -0.215670
    23  H    0.144403
    24  H    0.155982
    25  H    0.142315
    26  H    0.113144
    27  H    0.148477
    28  H    0.162946
    29  H    0.164310
    30  H    0.166111
    31  H    0.158154
    32  H    0.127329
    33  H    0.119346
    34  H    0.115824
    35  H    0.119583
    36  H    0.132722
    37  H    0.161839
    38  H    0.143023
    39  H    0.135786
    40  H    0.111614
    41  C   -0.093783
    42  H    0.137668
    43  H    0.132100
    44  C   -0.475628
    45  H    0.176830
    46  H    0.134554
    47  H    0.143467
    48  H    0.147148
    49  C    0.186050
    50  H    0.126979
 Sum of Mulliken charges =  -0.00000
 Mulliken charges with hydrogens summed into heavy atoms:
               1
     1  C   -0.040066
     2  C    0.143889
     3  C   -0.101517
     4  C    0.134060
     5  C   -0.114259
     6  C   -0.053960
     7  C    0.279855
     8  N   -0.600947
     9  C    0.248004
    10  C    0.271149
    11  C   -0.083225
    12  C   -0.093628
    13  O   -0.562000
    14  C    0.283594
    15  C   -0.010845
    16  C   -0.021151
    17  C   -0.008364
    18  C   -0.012521
    19  C    0.003616
    20  C    0.132055
    21  C   -0.030940
    22  C   -0.104056
    41  C    0.175985
    44  C   -0.020778
    49  C    0.186050
 Electronic spatial extent (au):  <R**2>=          11899.3751
 Charge=              0.0000 electrons
 Dipole moment (field-independent basis, Debye):
    X=              2.9322    Y=              3.8450    Z=             -0.4586  Tot=              4.8572
 Quadrupole moment (field-independent basis, Debye-Ang):
   XX=           -145.2813   YY=           -126.7574   ZZ=           -143.0976
   XY=              3.1937   XZ=              2.8329   YZ=              3.2194
 Traceless Quadrupole moment (field-independent basis, Debye-Ang):
   XX=             -6.9026   YY=             11.6214   ZZ=             -4.7188
   XY=              3.1937   XZ=              2.8329   YZ=              3.2194
 Octapole moment (field-independent basis, Debye-Ang**2):
  XXX=             -0.6187  YYY=            111.8874  ZZZ=              5.3933  XYY=             61.2612
  XXY=             -0.6549  XXZ=             -5.7629  XZZ=            -10.5256  YZZ=             -7.9223
  YYZ=             12.7186  XYZ=             -2.5973
 Hexadecapole moment (field-independent basis, Debye-Ang**3):
 XXXX=         -11260.9411 YYYY=          -3099.5844 ZZZZ=          -1264.1776 XXXY=             46.6980
 XXXZ=            -57.8423 YYYX=             56.9341 YYYZ=             54.6429 ZZZX=             -8.3900
 ZZZY=              3.2258 XXYY=          -2455.9426 XXZZ=          -2007.1723 YYZZ=           -818.7402
 XXYZ=             47.2752 YYXZ=             45.0985 ZZXY=              6.3884
 N-N= 2.028470262839D+03 E-N=-6.428374191842D+03  KE= 1.015404419135D+03
 Unable to Open any file for archive entry.
 1\1\GINC-N2\SP\RB3LYP TD-FC\6-31G\C23H25N1O1\HPCMGAC13\13-Jun-2025\0\\
 # td=(50-50,nstates=3) b3lyp/6-31g\\[No Title]\\0,1\C,0,5.115539,-3.62
 4042,0.198135\C,0,4.210892,-2.411743,0.148732\C,0,3.458997,-2.029285,1
 .268382\C,0,2.592381,-0.927356,1.236287\C,0,2.479251,-0.171405,0.04454
 3\C,0,-0.62945,2.097824,-0.289429\C,0,-0.054715,3.294235,-0.009426\N,0
 ,1.301991,3.410877,0.264421\C,0,1.923829,4.721767,0.459634\C,0,2.07283
 6,2.252752,0.264315\C,0,1.566871,1.017054,-0.007361\C,0,-0.408307,-0.3
 54263,-0.674337\O,0,-2.684268,-0.46331,0.187699\C,0,-4.05455,-0.65881,
 0.068952\C,0,-4.720784,-0.930179,-1.136301\C,0,-6.111809,-1.107898,-1.
 130987\C,0,-6.841905,-1.018316,0.056582\C,0,-6.167175,-0.747026,1.2573
 74\C,0,-4.785169,-0.56809,1.267265\C,0,3.222039,-0.549033,-1.09846\C,0
 ,3.099579,0.221105,-2.397169\C,0,4.077895,-1.658444,-1.024987\H,0,5.56
 6909,-3.747251,1.188882\H,0,4.559428,-4.545883,-0.021541\H,0,5.925016,
 -3.549666,-0.535887\H,0,3.545074,-2.602305,2.188406\H,0,-0.623176,4.21
 5267,0.035706\H,0,1.194415,5.412949,0.889592\H,0,2.76214,4.633139,1.15
 5852\H,0,2.294171,5.144687,-0.483627\H,0,3.119705,2.391635,0.507657\H,
 0,-4.177177,-1.005599,-2.069688\H,0,-6.620829,-1.318277,-2.067041\H,0,
 -7.917898,-1.157865,0.051441\H,0,-6.721862,-0.676092,2.188189\H,0,-4.2
 44355,-0.359366,2.183246\H,0,2.051161,0.313559,-2.703518\H,0,3.49695,1
 .239796,-2.30844\H,0,3.646704,-0.28203,-3.200527\H,0,4.648815,-1.94086
 9,-1.906183\C,0,-1.83607,-0.547049,-1.038783\H,0,-1.993776,-1.530487,-
 1.496133\H,0,-2.202799,0.219935,-1.736586\C,0,1.786836,-0.564961,2.466
 048\H,0,0.712681,-0.558881,2.246163\H,0,1.965134,-1.281718,3.273529\H,
 0,2.041485,0.434445,2.839283\H,0,-1.701174,2.060863,-0.434296\C,0,0.13
 9239,0.856512,-0.345503\H,0,0.215966,-1.239738,-0.638043\\Version=ES64
 L-G16RevC.02\State=1-A\HF=-1021.2021654\RMSD=9.960e-09\PG=C01 [X(C23H2
 5N1O1)]\\@
 The archive entry for this job was punched.


 10 WHATSOEVER THY HAND FINDETH TO DO, DO IT WITH THY  
 MIGHT. FOR THERE IS NO WORK, NOR DEVICE, NOR KNOWLEDGE, NOR  
 WISDOM, IN THE GRAVE, WHITHER THOU GOEST.                    
 11 I RETURNED AND SAW UNDER THE SUN, THAT THE RACE IS NOT TO 
 THE SWIFT, NOR THE BATTLE TO THE STRONG, NEITHER YET BREAD TO
 THE WISE, NOR YET RICHES TO MEN OF UNDERSTANDING, NOR YET    
 FAVOR TO MEN OF SKILL. BUT TIME AND CHANCE HAPPEN TO THEM ALL.
 12 FOR MAN ALSO KNOWETH NOT HIS TIME. AS THE FISHES   
 THAT ARE TAKEN IN AN EVIL NET, AND AS THE BIRDS THAT ARE     
 CAUGHT IN THE SNARE. SO ARE THE SONS OF MEN SNARED IN AN EVIL
 TIME, WHEN IT FALLETH SUDDENLY UPON THEM.
                                         ECCLESIASTES 9
 Job cpu time:       0 days  0 hours 28 minutes 10.2 seconds.
 Elapsed time:       0 days  0 hours  1 minutes 49.2 seconds.
 File lengths (MBytes):  RWF=    726 Int=      0 D2E=      0 Chk=     24 Scr=      2
 Normal termination of Gaussian 16 at Fri Jun 13 11:43:43 2025.
